<?xml version="1.0"?>
<VTKFile type="UnstructuredGrid" version="0.1" byte_order="LittleEndian">
<UnstructuredGrid>

<Piece NumberOfPoints="9" NumberOfCells="4">
	<Points>
		<DataArray type="Float32" NumberOfComponents="3" format="ascii">
		  5.00000000e-01  1.00000000e-15 0
		  4.37395996e-01 -5.49692813e-04 0
		  3.74986339e-01 -4.72366407e-03 0
		  6.39657493e-01  1.00000000e-15 0
		  5.74760157e-01 -2.85548591e-02 0
		  5.04665260e-01 -5.93765929e-02 0
		  7.79314986e-01  1.00000000e-15 0
		  7.12124318e-01 -5.65600254e-02 0
		  6.34344182e-01 -1.14029522e-01 0
		</DataArray>
	</Points>
	<Cells>
		<DataArray type="Int32" Name="connectivity" format="ascii">
		   0   1   4   3
		   1   2   5   4
		   3   4   7   6
		   4   5   8   7
		</DataArray>
		<DataArray type="Int32" Name="offsets" format="ascii">
		   4   8  12  16
		</DataArray>
		<DataArray type="UInt8" Name="types" format="ascii">
		   9   9   9   9
		</DataArray>
	</Cells>
	<PointData Scalars="Scalars" Vectors="Vectors">
		<DataArray type="Int32" Name="index" format="ascii">
		   0   0   0   0   0   0   0   0
		   0
		</DataArray>
		<DataArray type="Int32" Name="p_ref" format="ascii">
		   2   2   2   2   2   2   2   2
		   2
		</DataArray>
		<DataArray type="Int32" Name="ml" format="ascii">
		   0   0   0   0   0   0   0   0
		   0
		</DataArray>
		<DataArray type="Float32" Name="rho" format="ascii">
		  1.00207327e+00  1.00122485e+00  1.00065149e+00  9.98174863e-01  1.00026002e+00  1.00014343e+00  1.00012835e+00  1.00050820e+00
		  9.99979655e-01
		</DataArray>
		<DataArray type="Float32" Name="velocity" NumberOfComponents="3" format="ascii">
		  8.17793064e-02 -5.47037079e-03 0
		  8.46150621e-02  1.83397285e-03 0
		  8.52490264e-02  8.62277990e-03 0
		  8.59459066e-02 -2.63857594e-03 0
		  9.90152600e-02 -3.54672820e-03 0
		  1.04358358e-01 -3.99425258e-04 0
		  8.70470382e-02 -2.41879361e-03 0
		  1.07891922e-01 -1.64933584e-03 0
		  1.15136677e-01 -2.88720010e-03 0
		</DataArray>
		<DataArray type="Float32" Name="p" format="ascii">
		  1.00551763e+00  1.00233702e+00  1.00185076e+00  9.99217603e-01  1.00077935e+00  1.00068994e+00  1.00144803e+00  1.00098224e+00
		  1.00012371e+00
		</DataArray>
		<DataArray type="Float32" Name="s" format="ascii">
		  2.60289538e-03  6.20547536e-04  9.37253120e-04  1.77482278e-03  4.15058655e-04  4.88905286e-04  1.26730337e-03  2.70456384e-04
		  1.52188735e-04
		</DataArray>
		<DataArray type="Float32" Name="mach" format="ascii">
		  6.91518433e-02  7.14898806e-02  7.23728462e-02  7.26338431e-02  8.37151077e-02  8.81754693e-02  7.35480636e-02  9.11743744e-02
		  9.73318319e-02
		</DataArray>
		<DataArray type="Float32" Name="rhs_rho" format="ascii">
		 -1.02462673e-07 -7.23481371e-08  5.52173869e-08  2.48448916e-08  1.43659712e-08 -1.00795660e-08 -3.90443645e-08 -2.67985495e-08
		  2.01800951e-08
		</DataArray>
		<DataArray type="Float32" Name="rhs_velocity" NumberOfComponents="3" format="ascii">
		 -7.45412607e-09  1.20443881e-07 0
		 -1.02451645e-08  8.28819373e-08 0
		  9.69104456e-09 -6.23731049e-08 0
		  2.91129986e-09 -3.01497705e-08 0
		  2.06424779e-09 -2.06282216e-08 0
		 -1.74128939e-09  1.54606831e-08 0
		 -3.96421164e-09  4.49064247e-08 0
		 -3.86225442e-09  3.08880874e-08 0
		  3.44507769e-09 -2.31950430e-08 0
		</DataArray>
		<DataArray type="Float32" Name="rhs_E" format="ascii">
		 -3.59905098e-07 -2.53722074e-07  1.93573352e-07  8.74291280e-08  5.03807853e-08 -3.53094533e-08 -1.37242470e-07 -9.39843907e-08
		  7.07288518e-08
		</DataArray>
	</PointData>
</Piece>


<Piece NumberOfPoints="9" NumberOfCells="4">
	<Points>
		<DataArray type="Float32" NumberOfComponents="3" format="ascii">
		  7.79314986e-01  1.00000000e-15 0
		  7.12124318e-01 -5.65600254e-02 0
		  6.34344182e-01 -1.14029522e-01 0
		  9.74835462e-01 -1.52597392e-15 0
		  9.04434129e-01 -9.57672552e-02 0
		  8.15894658e-01 -1.90543616e-01 0
		  1.17035594e+00 -2.16811255e-15 0
		  1.09674394e+00 -1.34974485e-01 0
		  9.97445135e-01 -2.67057711e-01 0
		</DataArray>
	</Points>
	<Cells>
		<DataArray type="Int32" Name="connectivity" format="ascii">
		   0   1   4   3
		   1   2   5   4
		   3   4   7   6
		   4   5   8   7
		</DataArray>
		<DataArray type="Int32" Name="offsets" format="ascii">
		   4   8  12  16
		</DataArray>
		<DataArray type="UInt8" Name="types" format="ascii">
		   9   9   9   9
		</DataArray>
	</Cells>
	<PointData Scalars="Scalars" Vectors="Vectors">
		<DataArray type="Int32" Name="index" format="ascii">
		   1   1   1   1   1   1   1   1
		   1
		</DataArray>
		<DataArray type="Int32" Name="p_ref" format="ascii">
		   2   2   2   2   2   2   2   2
		   2
		</DataArray>
		<DataArray type="Int32" Name="ml" format="ascii">
		   0   0   0   0   0   0   0   0
		   0
		</DataArray>
		<DataArray type="Float32" Name="rho" format="ascii">
		  9.99359707e-01  1.00036687e+00  1.00020080e+00  9.98993295e-01  1.00019021e+00  9.99916527e-01  9.99208105e-01  1.00042225e+00
		  9.99875556e-01
		</DataArray>
		<DataArray type="Float32" Name="velocity" NumberOfComponents="3" format="ascii">
		  8.88890834e-02 -2.57720739e-03 0
		  1.08399839e-01 -1.98794898e-03 0
		  1.15982500e-01 -2.28248509e-03 0
		  9.54179953e-02 -1.81017072e-03 0
		  1.13519311e-01 -1.80355404e-03 0
		  1.17937456e-01 -2.31943192e-03 0
		  9.98302809e-02 -1.43103963e-03 0
		  1.15798803e-01 -1.28985804e-03 0
		  1.17932729e-01 -1.96675631e-03 0
		</DataArray>
		<DataArray type="Float32" Name="p" format="ascii">
		  1.00034257e+00  1.00078908e+00  1.00038728e+00  9.99655180e-01  1.00035550e+00  9.99865600e-01  9.99860425e-01  1.00055774e+00
		  9.99873984e-01
		</DataArray>
		<DataArray type="Float32" Name="s" format="ascii">
		  1.23920462e-03  2.75242523e-04  1.06121161e-04  1.06521755e-03  8.91659953e-05 -1.75423360e-05  9.69507815e-04 -3.34392714e-05
		  4.82085734e-05
		</DataArray>
		<DataArray type="Float32" Name="mach" format="ascii">
		  7.51196257e-02  9.16106592e-02  9.80329440e-02  8.06307283e-02  9.59455093e-02  9.96971558e-02  8.43531248e-02  9.78672951e-02
		  9.96852858e-02
		</DataArray>
		<DataArray type="Float32" Name="rhs_rho" format="ascii">
		 -2.29026559e-09 -1.09792059e-09  6.52001637e-10 -2.12840408e-09 -9.96304334e-10  4.41053828e-10 -8.32972741e-10 -5.60812473e-11
		 -8.70547849e-11
		</DataArray>
		<DataArray type="Float32" Name="rhs_velocity" NumberOfComponents="3" format="ascii">
		 -7.18401408e-10  4.01899525e-10 0
		 -3.11002067e-10  7.53837563e-11 0
		  2.22942380e-10 -5.92400525e-11 0
		 -2.24926031e-10 -1.16918376e-10 0
		 -1.64119482e-10 -3.07822864e-11 0
		  6.14589209e-11  3.12187686e-11 0
		 -3.30524320e-10  1.42898767e-10 0
		 -8.22958038e-11  2.50437659e-11 0
		  4.59681911e-11 -2.22526275e-11 0
		</DataArray>
		<DataArray type="Float32" Name="rhs_E" format="ascii">
		 -8.06404270e-09 -3.86533230e-09  2.29744791e-09 -7.45360308e-09 -3.48718869e-09  1.54032263e-09 -2.93933390e-09 -2.03999185e-10
		 -2.97489448e-10
		</DataArray>
	</PointData>
</Piece>


<Piece NumberOfPoints="9" NumberOfCells="4">
	<Points>
		<DataArray type="Float32" NumberOfComponents="3" format="ascii">
		  1.17035594e+00 -2.16731007e-15 0
		  1.09674394e+00 -1.34974485e-01 0
		  9.97445135e-01 -2.67057711e-01 0
		  1.44408461e+00 -3.06710665e-15 0
		  1.36597768e+00 -1.89864608e-01 0
		  1.25161581e+00 -3.74177445e-01 0
		  1.71781328e+00 -3.96610074e-15 0
		  1.63521142e+00 -2.44754730e-01 0
		  1.50578648e+00 -4.81297179e-01 0
		</DataArray>
	</Points>
	<Cells>
		<DataArray type="Int32" Name="connectivity" format="ascii">
		   0   1   4   3
		   1   2   5   4
		   3   4   7   6
		   4   5   8   7
		</DataArray>
		<DataArray type="Int32" Name="offsets" format="ascii">
		   4   8  12  16
		</DataArray>
		<DataArray type="UInt8" Name="types" format="ascii">
		   9   9   9   9
		</DataArray>
	</Cells>
	<PointData Scalars="Scalars" Vectors="Vectors">
		<DataArray type="Int32" Name="index" format="ascii">
		   2   2   2   2   2   2   2   2
		   2
		</DataArray>
		<DataArray type="Int32" Name="p_ref" format="ascii">
		   2   2   2   2   2   2   2   2
		   2
		</DataArray>
		<DataArray type="Int32" Name="ml" format="ascii">
		   0   0   0   0   0   0   0   0
		   0
		</DataArray>
		<DataArray type="Float32" Name="rho" format="ascii">
		  9.99100644e-01  1.00035779e+00  9.99780044e-01  9.99097987e-01  1.00029720e+00  9.99628424e-01  9.99273991e-01  1.00030216e+00
		  9.99626440e-01
		</DataArray>
		<DataArray type="Float32" Name="velocity" NumberOfComponents="3" format="ascii">
		  1.00099309e-01 -1.41272710e-03 0
		  1.15922618e-01 -1.45202683e-03 0
		  1.17914422e-01 -2.12804885e-03 0
		  1.04655036e-01 -1.08302531e-03 0
		  1.17064814e-01 -1.18761949e-03 0
		  1.17539348e-01 -1.64113501e-03 0
		  1.07655786e-01 -8.90174920e-04 0
		  1.17489427e-01 -1.01577541e-03 0
		  1.17370610e-01 -1.32194043e-03 0
		</DataArray>
		<DataArray type="Float32" Name="p" format="ascii">
		  9.99719841e-01  1.00045490e+00  9.99752394e-01  9.99570532e-01  1.00032389e+00  9.99670198e-01  9.99672262e-01  1.00033228e+00
		  9.99684886e-01
		</DataArray>
		<DataArray type="Float32" Name="s" format="ascii">
		  9.79466699e-04 -4.60178797e-05  6.03353791e-05  8.33828471e-04 -9.21837880e-05  1.90447438e-04  6.88989191e-04 -9.07327102e-05
		  2.07917617e-04
		</DataArray>
		<DataArray type="Float32" Name="mach" format="ascii">
		  8.45815757e-02  9.79754242e-02  9.96734815e-02  8.84334740e-02  9.89415972e-02  9.93464865e-02  9.09707291e-02  9.92989051e-02
		  9.91996621e-02
		</DataArray>
		<DataArray type="Float32" Name="rhs_rho" format="ascii">
		 -1.16401240e-09 -2.56694493e-10 -6.48171308e-12 -1.52377200e-09 -2.44070087e-10 -4.56172272e-11 -2.73988776e-10  8.05682047e-12
		 -4.05437181e-11
		</DataArray>
		<DataArray type="Float32" Name="rhs_velocity" NumberOfComponents="3" format="ascii">
		 -2.69383290e-10  1.11179260e-11 0
		 -5.31374108e-11  4.59417210e-13 0
		 -1.89058585e-11  1.18216889e-11 0
		 -3.06587647e-10 -8.99375193e-12 0
		 -3.67806896e-11 -9.68648772e-12 0
		 -1.51821072e-11  1.23969093e-11 0
		 -9.00778899e-11  1.81701452e-12 0
		 -5.02254986e-12  5.49358130e-12 0
		 -1.19802131e-11 -1.92871897e-12 0
		</DataArray>
		<DataArray type="Float32" Name="rhs_E" format="ascii">
		 -4.09217278e-09 -8.96652111e-10 -2.61866022e-11 -5.34075611e-09 -8.55495771e-10 -1.58600329e-10 -9.62945001e-10  2.70112029e-11
		 -1.42512035e-10
		</DataArray>
	</PointData>
</Piece>


<Piece NumberOfPoints="9" NumberOfCells="4">
	<Points>
		<DataArray type="Float32" NumberOfComponents="3" format="ascii">
		  1.71781328e+00 -3.96382137e-15 0
		  1.63521142e+00 -2.44754730e-01 0
		  1.50578648e+00 -4.81297179e-01 0
		  2.10103342e+00 -5.22469247e-15 0
		  2.01213865e+00 -3.21600902e-01 0
		  1.86162542e+00 -6.31264807e-01 0
		  2.48425356e+00 -6.48328421e-15 0
		  2.38906589e+00 -3.98447074e-01 0
		  2.21746436e+00 -7.81232435e-01 0
		</DataArray>
	</Points>
	<Cells>
		<DataArray type="Int32" Name="connectivity" format="ascii">
		   0   1   4   3
		   1   2   5   4
		   3   4   7   6
		   4   5   8   7
		</DataArray>
		<DataArray type="Int32" Name="offsets" format="ascii">
		   4   8  12  16
		</DataArray>
		<DataArray type="UInt8" Name="types" format="ascii">
		   9   9   9   9
		</DataArray>
	</Cells>
	<PointData Scalars="Scalars" Vectors="Vectors">
		<DataArray type="Int32" Name="index" format="ascii">
		   3   3   3   3   3   3   3   3
		   3
		</DataArray>
		<DataArray type="Int32" Name="p_ref" format="ascii">
		   2   2   2   2   2   2   2   2
		   2
		</DataArray>
		<DataArray type="Int32" Name="ml" format="ascii">
		   0   0   0   0   0   0   0   0
		   0
		</DataArray>
		<DataArray type="Float32" Name="rho" format="ascii">
		  9.99263293e-01  1.00028182e+00  9.99624886e-01  9.99377521e-01  1.00021201e+00  9.99686637e-01  9.99509018e-01  1.00018241e+00
		  9.99743720e-01
		</DataArray>
		<DataArray type="Float32" Name="velocity" NumberOfComponents="3" format="ascii">
		  1.07753338e-01 -8.57452657e-04 0
		  1.17505591e-01 -1.08937916e-03 0
		  1.17395772e-01 -1.27282007e-03 0
		  1.10183066e-01 -7.06446099e-04 0
		  1.17807671e-01 -8.86673700e-04 0
		  1.17585853e-01 -1.03793992e-03 0
		  1.11744937e-01 -6.04419554e-04 0
		  1.17962854e-01 -7.60442169e-04 0
		  1.17713250e-01 -8.59700075e-04 0
		</DataArray>
		<DataArray type="Float32" Name="p" format="ascii">
		  9.99651864e-01  1.00030436e+00  9.99683016e-01  9.99665550e-01  1.00022472e+00  9.99721790e-01  9.99752822e-01  1.00019475e+00
		  9.99771863e-01
		</DataArray>
		<DataArray type="Float32" Name="s" format="ascii">
		  6.83573269e-04 -9.01811304e-05  2.08224002e-04  5.37235210e-04 -7.20911962e-05  1.60527967e-04  4.40335891e-04 -6.06287836e-05
		  1.30675001e-04
		</DataArray>
		<DataArray type="Float32" Name="mach" format="ascii">
		  9.10533733e-02  9.93134990e-02  9.92204828e-02  9.31101844e-02  9.95678423e-02  9.93803083e-02  9.44315738e-02  9.96982652e-02
		  9.94871072e-02
		</DataArray>
		<DataArray type="Float32" Name="rhs_rho" format="ascii">
		 -5.76558576e-10 -6.50998949e-11 -1.97967136e-11 -7.60382188e-10 -9.32363874e-11 -1.86068774e-11 -1.19399733e-10 -9.62776147e-12
		 -3.35706327e-12
		</DataArray>
		<DataArray type="Float32" Name="rhs_velocity" NumberOfComponents="3" format="ascii">
		 -1.55664844e-10 -1.74404358e-12 0
		  2.28115149e-12 -6.60431248e-13 0
		 -1.75318043e-11  1.72268001e-12 0
		 -1.84122119e-10 -5.02361251e-12 0
		 -6.89265311e-12 -5.06653053e-12 0
		 -1.44425548e-11  3.48687534e-12 0
		 -3.95415371e-11 -1.20824786e-12 0
		  6.89606405e-13  1.59705702e-12 0
		 -3.68248533e-12 -1.72346203e-12 0
		</DataArray>
		<DataArray type="Float32" Name="rhs_E" format="ascii">
		 -2.02212701e-09 -2.27907896e-10 -6.96974638e-11 -2.66497538e-09 -3.27383579e-10 -6.50084587e-11 -4.19375300e-10 -3.36447262e-11
		 -1.18488755e-11
		</DataArray>
	</PointData>
</Piece>


<Piece NumberOfPoints="9" NumberOfCells="4">
	<Points>
		<DataArray type="Float32" NumberOfComponents="3" format="ascii">
		  2.48425356e+00 -6.47893721e-15 0
		  2.38906589e+00 -3.98447074e-01 0
		  2.21746436e+00 -7.81232435e-01 0
		  3.02076172e+00 -8.24531253e-15 0
		  2.91676399e+00 -5.06031708e-01 0
		  2.71563884e+00 -9.91187101e-01 0
		  3.55726988e+00 -1.00073409e-14 0
		  3.44446209e+00 -6.13616342e-01 0
		  3.21381333e+00 -1.20114177e+00 0
		</DataArray>
	</Points>
	<Cells>
		<DataArray type="Int32" Name="connectivity" format="ascii">
		   0   1   4   3
		   1   2   5   4
		   3   4   7   6
		   4   5   8   7
		</DataArray>
		<DataArray type="Int32" Name="offsets" format="ascii">
		   4   8  12  16
		</DataArray>
		<DataArray type="UInt8" Name="types" format="ascii">
		   9   9   9   9
		</DataArray>
	</Cells>
	<PointData Scalars="Scalars" Vectors="Vectors">
		<DataArray type="Int32" Name="index" format="ascii">
		   4   4   4   4   4   4   4   4
		   4
		</DataArray>
		<DataArray type="Int32" Name="p_ref" format="ascii">
		   2   2   2   2   2   2   2   2
		   2
		</DataArray>
		<DataArray type="Int32" Name="ml" format="ascii">
		   0   0   0   0   0   0   0   0
		   0
		</DataArray>
		<DataArray type="Float32" Name="rho" format="ascii">
		  9.99504373e-01  1.00017847e+00  9.99743956e-01  9.99582505e-01  1.00013917e+00  9.99783661e-01  9.99659583e-01  1.00011961e+00
		  9.99819096e-01
		</DataArray>
		<DataArray type="Float32" Name="velocity" NumberOfComponents="3" format="ascii">
		  1.11786801e-01 -5.88576178e-04 0
		  1.17967362e-01 -7.81382352e-04 0
		  1.17721661e-01 -8.53451393e-04 0
		  1.13128179e-01 -4.90534551e-04 0
		  1.18102782e-01 -6.37644522e-04 0
		  1.17866690e-01 -7.19662592e-04 0
		  1.14036337e-01 -4.18684507e-04 0
		  1.18175522e-01 -5.43043856e-04 0
		  1.17942971e-01 -6.10626578e-04 0
		</DataArray>
		<DataArray type="Float32" Name="p" format="ascii">
		  9.99743789e-01  1.00018944e+00  9.99771577e-01  9.99770019e-01  1.00014421e+00  9.99804855e-01  9.99819514e-01  1.00012413e+00
		  9.99838220e-01
		</DataArray>
		<DataArray type="Float32" Name="s" format="ascii">
		  4.37805944e-04 -6.04170981e-05  1.30059338e-04  3.54608230e-04 -5.06170111e-05  1.07742858e-04  2.96162944e-04 -4.33203470e-05
		  9.14949235e-05
		</DataArray>
		<DataArray type="Float32" Name="mach" format="ascii">
		  9.44670868e-02  9.97022583e-02  9.94942025e-02  9.56026938e-02  9.98162717e-02  9.96163357e-02  9.63712366e-02  9.98773740e-02
		  9.96803867e-02
		</DataArray>
		<DataArray type="Float32" Name="rhs_rho" format="ascii">
		 -2.90851147e-10 -3.68948837e-11 -2.11432061e-12 -4.08609940e-10 -5.66198685e-11  3.04332303e-12 -7.04152936e-11 -9.53787673e-12
		  1.71381994e-12
		</DataArray>
		<DataArray type="Float32" Name="rhs_velocity" NumberOfComponents="3" format="ascii">
		 -8.32702068e-11 -3.33917638e-12 0
		 -4.96979861e-14 -6.32481908e-13 0
		 -8.01064212e-12 -4.47060153e-13 0
		 -1.06745681e-10 -3.85673825e-12 0
		 -3.20937721e-12 -2.88168100e-12 0
		 -7.39061237e-12  5.85682375e-13 0
		 -2.23631092e-11 -1.39900327e-12 0
		 -8.83282559e-13  6.10482145e-13 0
		 -1.34044884e-12 -1.05791935e-12 0
		</DataArray>
		<DataArray type="Float32" Name="rhs_E" format="ascii">
		 -1.02026583e-09 -1.29188422e-10 -7.60928642e-12 -1.43231715e-09 -1.98585509e-10  1.06915595e-11 -2.47091678e-10 -3.35081078e-11
		  5.99931661e-12
		</DataArray>
	</PointData>
</Piece>


<Piece NumberOfPoints="9" NumberOfCells="4">
	<Points>
		<DataArray type="Float32" NumberOfComponents="3" format="ascii">
		  3.55726988e+00 -1.00000992e-14 0
		  3.44446209e+00 -6.13616342e-01 0
		  3.21381333e+00 -1.20114177e+00 0
		  4.30838130e+00 -1.24741805e-14 0
		  4.18323942e+00 -7.64234827e-01 0
		  3.91125760e+00 -1.49507830e+00 0
		  5.05949271e+00 -1.49410201e-14 0
		  4.92201674e+00 -9.14853313e-01 0
		  4.60870187e+00 -1.78901483e+00 0
		</DataArray>
	</Points>
	<Cells>
		<DataArray type="Int32" Name="connectivity" format="ascii">
		   0   1   4   3
		   1   2   5   4
		   3   4   7   6
		   4   5   8   7
		</DataArray>
		<DataArray type="Int32" Name="offsets" format="ascii">
		   4   8  12  16
		</DataArray>
		<DataArray type="UInt8" Name="types" format="ascii">
		   9   9   9   9
		</DataArray>
	</Cells>
	<PointData Scalars="Scalars" Vectors="Vectors">
		<DataArray type="Int32" Name="index" format="ascii">
		   5   5   5   5   5   5   5   5
		   5
		</DataArray>
		<DataArray type="Int32" Name="p_ref" format="ascii">
		   2   2   2   2   2   2   2   2
		   2
		</DataArray>
		<DataArray type="Int32" Name="ml" format="ascii">
		   0   0   0   0   0   0   0   0
		   0
		</DataArray>
		<DataArray type="Float32" Name="rho" format="ascii">
		  9.99659000e-01  1.00011791e+00  9.99818691e-01  9.99711748e-01  1.00009415e+00  9.99847174e-01  9.99761335e-01  1.00008079e+00
		  9.99871015e-01
		</DataArray>
		<DataArray type="Float32" Name="velocity" NumberOfComponents="3" format="ascii">
		  1.14056064e-01 -4.09033022e-04 0
		  1.18177206e-01 -5.53988902e-04 0
		  1.17947800e-01 -6.05853904e-04 0
		  1.14877254e-01 -3.39804766e-04 0
		  1.18239578e-01 -4.52593223e-04 0
		  1.18032543e-01 -5.07789641e-04 0
		  1.15448250e-01 -2.88262907e-04 0
		  1.18274027e-01 -3.83732707e-04 0
		  1.18081594e-01 -4.29663598e-04 0
		</DataArray>
		<DataArray type="Float32" Name="p" format="ascii">
		  9.99817252e-01  1.00012191e+00  9.99837290e-01  9.99837755e-01  1.00009574e+00  9.99861666e-01  9.99869148e-01  1.00008224e+00
		  9.99883746e-01
		</DataArray>
		<DataArray type="Float32" Name="s" format="ascii">
		  2.94717327e-04 -4.31634752e-05  9.11316181e-05  2.41353199e-04 -3.60738305e-05  7.56284997e-05  2.03309628e-04 -3.08625219e-05
		  6.43298351e-05
		</DataArray>
		<DataArray type="Float32" Name="mach" format="ascii">
		  9.63879581e-02  9.98788658e-02  9.96844728e-02  9.70833066e-02  9.99313352e-02  9.97559062e-02  9.75666236e-02  9.99602506e-02
		  9.97971868e-02
		</DataArray>
		<DataArray type="Float32" Name="rhs_rho" format="ascii">
		 -1.64198722e-10 -2.39636666e-11  4.23194000e-12 -2.35462108e-10 -4.05047246e-11  1.40884105e-11 -4.11882966e-11 -8.55345552e-12
		  5.09942717e-12
		</DataArray>
		<DataArray type="Float32" Name="rhs_velocity" NumberOfComponents="3" format="ascii">
		 -4.84929886e-11 -2.58151061e-12 0
		 -4.76944850e-13 -3.39514414e-13 0
		 -3.86128797e-12 -8.11061115e-13 0
		 -6.52696570e-11 -3.07957791e-12 0
		 -2.69362310e-12 -1.49497081e-12 0
		 -3.09138208e-12 -8.84410952e-13 0
		 -1.35873132e-11 -1.08025122e-12 0
		 -8.30000443e-13  3.97412545e-13 0
		 -3.74577278e-13 -1.01294746e-12 0
		</DataArray>
		<DataArray type="Float32" Name="rhs_E" format="ascii">
		 -5.75868795e-10 -8.39625976e-11  1.47403354e-11 -8.25371970e-10 -1.42059975e-10  4.93632686e-11 -1.44507597e-10 -3.00188078e-11
		  1.78538758e-11
		</DataArray>
	</PointData>
</Piece>


<Piece NumberOfPoints="9" NumberOfCells="4">
	<Points>
		<DataArray type="Float32" NumberOfComponents="3" format="ascii">
		  5.05949271e+00 -1.49297259e-14 0
		  4.92201674e+00 -9.14853313e-01 0
		  4.60870187e+00 -1.78901483e+00 0
		  6.11104871e+00 -1.83945956e-14 0
		  5.95630501e+00 -1.12571919e+00 0
		  5.58512386e+00 -2.20052597e+00 0
		  7.16260470e+00 -2.18481711e-14 0
		  6.99059328e+00 -1.33658508e+00 0
		  6.56154585e+00 -2.61203712e+00 0
		</DataArray>
	</Points>
	<Cells>
		<DataArray type="Int32" Name="connectivity" format="ascii">
		   0   1   4   3
		   1   2   5   4
		   3   4   7   6
		   4   5   8   7
		</DataArray>
		<DataArray type="Int32" Name="offsets" format="ascii">
		   4   8  12  16
		</DataArray>
		<DataArray type="UInt8" Name="types" format="ascii">
		   9   9   9   9
		</DataArray>
	</Cells>
	<PointData Scalars="Scalars" Vectors="Vectors">
		<DataArray type="Int32" Name="index" format="ascii">
		   6   6   6   6   6   6   6   6
		   6
		</DataArray>
		<DataArray type="Int32" Name="p_ref" format="ascii">
		   2   2   2   2   2   2   2   2
		   2
		</DataArray>
		<DataArray type="Int32" Name="ml" format="ascii">
		   0   0   0   0   0   0   0   0
		   0
		</DataArray>
		<DataArray type="Float32" Name="rho" format="ascii">
		  9.99761529e-01  1.00007997e+00  9.99871031e-01  9.99797757e-01  1.00006475e+00  9.99891392e-01  9.99830808e-01  1.00005552e+00
		  9.99907802e-01
		</DataArray>
		<DataArray type="Float32" Name="velocity" NumberOfComponents="3" format="ascii">
		  1.15459318e-01 -2.81830702e-04 0
		  1.18274566e-01 -3.90110675e-04 0
		  1.18084200e-01 -4.25672412e-04 0
		  1.15988981e-01 -2.31681549e-04 0
		  1.18305324e-01 -3.15932943e-04 0
		  1.18140740e-01 -3.53822172e-04 0
		  1.16366110e-01 -1.94275790e-04 0
		  1.18322914e-01 -2.63433073e-04 0
		  1.18174886e-01 -2.96890917e-04 0
		</DataArray>
		<DataArray type="Float32" Name="p" format="ascii">
		  9.99868529e-01  1.00008120e+00  9.99883517e-01  9.99883866e-01  1.00006491e+00  9.99901274e-01  9.99904647e-01  1.00005567e+00
		  9.99916422e-01
		</DataArray>
		<DataArray type="Float32" Name="s" format="ascii">
		  2.02419617e-04 -3.07498053e-05  6.40784028e-05  1.67028993e-04 -2.57380431e-05  5.33293711e-05  1.41532138e-04 -2.20595086e-05
		  4.55009767e-05
		</DataArray>
		<DataArray type="Float32" Name="mach" format="ascii">
		  9.75760032e-02  9.99607345e-02  9.97993894e-02  9.80245553e-02  9.99865968e-02  9.98471032e-02  9.83438183e-02  1.00001354e-01
		  9.98758926e-02
		</DataArray>
		<DataArray type="Float32" Name="rhs_rho" format="ascii">
		 -9.58847384e-11 -1.82263781e-11  8.81132308e-12 -1.37192256e-10 -3.32897321e-11  2.18504556e-11 -2.40567653e-11 -7.97248790e-12
		  6.98176929e-12
		</DataArray>
		<DataArray type="Float32" Name="rhs_velocity" NumberOfComponents="3" format="ascii">
		 -2.97351616e-11 -2.00313538e-12 0
		 -8.18672020e-13 -7.08401246e-14 0
		 -1.57401289e-12 -1.18731603e-12 0
		 -4.07533964e-11 -2.51079574e-12 0
		 -2.81497048e-12 -5.88196158e-13 0
		 -2.96729840e-13 -1.86581445e-12 0
		 -8.45020622e-12 -8.45523722e-13 0
		 -9.11656823e-13  3.30821975e-13 0
		  2.19358209e-13 -1.01647002e-12 0
		</DataArray>
		<DataArray type="Float32" Name="rhs_E" format="ascii">
		 -3.36262637e-10 -6.38753788e-11  3.08174477e-11 -4.80911374e-10 -1.16739618e-10  7.65421231e-11 -8.43976867e-11 -2.79687507e-11
		  2.44455400e-11
		</DataArray>
	</PointData>
</Piece>


<Piece NumberOfPoints="9" NumberOfCells="4">
	<Points>
		<DataArray type="Float32" NumberOfComponents="3" format="ascii">
		  7.16260470e+00 -2.18312033e-14 0
		  6.99059328e+00 -1.33658508e+00 0
		  6.56154585e+00 -2.61203712e+00 0
		  8.63478307e+00 -2.66831767e-14 0
		  8.43859683e+00 -1.63179731e+00 0
		  7.92853661e+00 -3.18815271e+00 0
		  1.01069614e+01 -3.15181823e-14 0
		  9.88660039e+00 -1.92700954e+00 0
		  9.29552737e+00 -3.76426830e+00 0
		</DataArray>
	</Points>
	<Cells>
		<DataArray type="Int32" Name="connectivity" format="ascii">
		   0   1   4   3
		   1   2   5   4
		   3   4   7   6
		   4   5   8   7
		</DataArray>
		<DataArray type="Int32" Name="offsets" format="ascii">
		   4   8  12  16
		</DataArray>
		<DataArray type="UInt8" Name="types" format="ascii">
		   9   9   9   9
		</DataArray>
	</Cells>
	<PointData Scalars="Scalars" Vectors="Vectors">
		<DataArray type="Int32" Name="index" format="ascii">
		   7   7   7   7   7   7   7   7
		   7
		</DataArray>
		<DataArray type="Int32" Name="p_ref" format="ascii">
		   2   2   2   2   2   2   2   2
		   2
		</DataArray>
		<DataArray type="Int32" Name="ml" format="ascii">
		   0   0   0   0   0   0   0   0
		   0
		</DataArray>
		<DataArray type="Float32" Name="rho" format="ascii">
		  9.99831425e-01  1.00005505e+00  9.99907775e-01  9.99855890e-01  1.00004502e+00  9.99922235e-01  9.99877863e-01  1.00003862e+00
		  9.99933466e-01
		</DataArray>
		<DataArray type="Float32" Name="velocity" NumberOfComponents="3" format="ascii">
		  1.16373528e-01 -1.88356013e-04 0
		  1.18322810e-01 -2.68260044e-04 0
		  1.18176651e-01 -2.92129589e-04 0
		  1.16729097e-01 -1.50888198e-04 0
		  1.18339240e-01 -2.10598517e-04 0
		  1.18220555e-01 -2.39652515e-04 0
		  1.16997201e-01 -1.25779252e-04 0
		  1.18348814e-01 -1.65098990e-04 0
		  1.18244818e-01 -1.98922904e-04 0
		</DataArray>
		<DataArray type="Float32" Name="p" format="ascii">
		  9.99904942e-01  1.00005509e+00  9.99916215e-01  9.99915146e-01  1.00004460e+00  9.99928980e-01  9.99928446e-01  1.00003825e+00
		  9.99939225e-01
		</DataArray>
		<DataArray type="Float32" Name="s" format="ascii">
		  1.40962339e-04 -2.19820459e-05  4.53323755e-05  1.16911597e-04 -1.84328831e-05  3.78521241e-05  9.94465863e-05 -1.58190999e-05
		  3.23736926e-05
		</DataArray>
		<DataArray type="Float32" Name="mach" format="ascii">
		  9.83500952e-02  1.00001282e-01  9.98773832e-02  9.86512518e-02  1.00015092e-01  9.99144735e-02  9.88782379e-02  1.00023120e-01
		  9.99349650e-02
		</DataArray>
		<DataArray type="Float32" Name="rhs_rho" format="ascii">
		 -5.54266725e-11 -1.54149892e-11  1.20643931e-11 -7.83191209e-11 -2.99736902e-11  2.70648562e-11 -1.50262962e-11 -7.30133957e-12
		  7.41799054e-12
		</DataArray>
		<DataArray type="Float32" Name="rhs_velocity" NumberOfComponents="3" format="ascii">
		 -1.86494052e-11 -1.75964627e-12 0
		 -1.09342760e-12  2.28606796e-13 0
		 -2.55022351e-13 -1.62258734e-12 0
		 -2.53807421e-11 -1.92184856e-12 0
		 -3.17434967e-12 -1.00947029e-13 0
		  1.71348874e-12 -2.18571758e-12 0
		 -5.39846150e-12 -7.01064347e-13 0
		 -1.07629976e-12  3.37519054e-13 0
		  5.06467480e-13 -9.90047722e-13 0
		</DataArray>
		<DataArray type="Float32" Name="rhs_E" format="ascii">
		 -1.94395006e-10 -5.40254241e-11  4.22155844e-11 -2.74531874e-10 -1.05104925e-10  9.48216085e-11 -5.27146613e-11 -2.56249270e-11
		  2.59668423e-11
		</DataArray>
	</PointData>
</Piece>


<Piece NumberOfPoints="9" NumberOfCells="4">
	<Points>
		<DataArray type="Float32" NumberOfComponents="3" format="ascii">
		  1.01069614e+01 -3.14932715e-14 0
		  9.88660039e+00 -1.92700954e+00 0
		  9.29552737e+00 -3.76426830e+00 0
		  1.21680111e+01 -3.82871902e-14 0
		  1.19138054e+01 -2.34030666e+00 0
		  1.12093144e+01 -4.57083013e+00 0
		  1.42290609e+01 -4.50561980e-14 0
		  1.39410103e+01 -2.75360378e+00 0
		  1.31231015e+01 -5.37739196e+00 0
		</DataArray>
	</Points>
	<Cells>
		<DataArray type="Int32" Name="connectivity" format="ascii">
		   0   1   4   3
		   1   2   5   4
		   3   4   7   6
		   4   5   8   7
		</DataArray>
		<DataArray type="Int32" Name="offsets" format="ascii">
		   4   8  12  16
		</DataArray>
		<DataArray type="UInt8" Name="types" format="ascii">
		   9   9   9   9
		</DataArray>
	</Cells>
	<PointData Scalars="Scalars" Vectors="Vectors">
		<DataArray type="Int32" Name="index" format="ascii">
		   8   8   8   8   8   8   8   8
		   8
		</DataArray>
		<DataArray type="Int32" Name="p_ref" format="ascii">
		   2   2   2   2   2   2   2   2
		   2
		</DataArray>
		<DataArray type="Int32" Name="ml" format="ascii">
		   0   0   0   0   0   0   0   0
		   0
		</DataArray>
		<DataArray type="Float32" Name="rho" format="ascii">
		  9.99879971e-01  1.00003823e+00  9.99932705e-01  9.99893154e-01  1.00003180e+00  9.99943149e-01  9.99905412e-01  1.00002751e+00
		  9.99950118e-01
		</DataArray>
		<DataArray type="Float32" Name="velocity" NumberOfComponents="3" format="ascii">
		  1.17005762e-01 -1.13723285e-04 0
		  1.18347460e-01 -1.73256787e-04 0
		  1.18246720e-01 -1.86401263e-04 0
		  1.17258547e-01 -8.74166294e-05 0
		  1.18356174e-01 -1.18746276e-04 0
		  1.18297095e-01 -1.54378361e-04 0
		  1.17509130e-01 -8.82065845e-05 0
		  1.18360275e-01 -5.69245841e-05 0
		  1.18304949e-01 -1.33948352e-04 0
		</DataArray>
		<DataArray type="Float32" Name="p" format="ascii">
		  9.99931023e-01  1.00003776e+00  9.99938044e-01  9.99932846e-01  1.00003128e+00  9.99947398e-01  9.99937865e-01  1.00002715e+00
		  9.99953279e-01
		</DataArray>
		<DataArray type="Float32" Name="s" format="ascii">
		  9.90718401e-05 -1.57648552e-05  3.22588191e-05  8.24372418e-05 -1.32334357e-05  2.69906925e-05  7.02924993e-05 -1.13655974e-05
		  2.31138028e-05
		</DataArray>
		<DataArray type="Float32" Name="mach" format="ascii">