<?xml version="1.0"?>
<VTKFile type="UnstructuredGrid" version="0.1" byte_order="LittleEndian">
<UnstructuredGrid>

<Piece NumberOfPoints="6" NumberOfCells="4">
	<Points>
		<DataArray type="Float32" NumberOfComponents="3" format="ascii">
		  5.00000000e-01  1.00000000e-15 0
		  4.67370119e-01 -1.41380311e-03 0
		  4.35718025e-01 -3.97525804e-03 0
		  5.19437557e-01 -6.65697691e-03 0
		  4.87093175e-01 -1.44055814e-02 0
		  5.38468324e-01 -2.48359048e-02 0
		</DataArray>
	</Points>
	<Cells>
		<DataArray type="Int32" Name="connectivity" format="ascii">
		   0   1   3
		   1   2   4
		   3   4   5
		   1   3   4
		</DataArray>
		<DataArray type="Int32" Name="offsets" format="ascii">
		   3   6   9  12
		</DataArray>
		<DataArray type="UInt8" Name="types" format="ascii">
		   5   5   5   5
		</DataArray>
	</Cells>
	<PointData Scalars="Scalars" Vectors="Vectors">
		<DataArray type="Int32" Name="index" format="ascii">
		   0   0   0   0   0   0
		</DataArray>
		<DataArray type="Int32" Name="p_ref" format="ascii">
		   2   2   2   2   2   2
		</DataArray>
		<DataArray type="Int32" Name="ml" format="ascii">
		   0   0   0   0   0   0
		</DataArray>
		<DataArray type="Float32" Name="$\rho$" format="ascii">
		  1.00076594e+00  1.00159739e+00  1.00070164e+00  1.00164373e+00  1.00122674e+00  1.00009795e+00
		</DataArray>
		<DataArray type="Float32" Name="$\mathbf{v}$" NumberOfComponents="3" format="ascii">
		  5.07583571e-02  6.48131218e-04 0
		  9.51583547e-02  6.29708106e-03 0
		  1.01693021e-01  1.03736546e-02 0
		  9.98494953e-02 -6.59769481e-03 0
		  8.91049581e-02  2.63171173e-03 0
		  1.00248965e-01 -3.42690782e-03 0
		</DataArray>
		<DataArray type="Float32" Name="$\mathit{p}$" format="ascii">
		  1.00119559e+00  1.00209919e+00  1.00117165e+00  1.00240292e+00  1.00196792e+00  1.00028691e+00
		</DataArray>
		<DataArray type="Float32" Name="$\mathit{s}$" format="ascii">
		  1.22974198e-04 -1.37568561e-04  1.89009345e-04  1.00709218e-04  2.49596051e-04  1.49752296e-04
		</DataArray>
		<DataArray type="Float32" Name="mach" format="ascii">
		  4.28929321e-02  8.05792045e-02  8.63720272e-02  8.45402160e-02  7.53124027e-02  8.47673196e-02
		</DataArray>
		<DataArray type="Float32" Name="rhs_rho" format="ascii">
		  1.00000000e-15  1.00000000e-15  1.00000000e-15  1.00000000e-15  1.00000000e-15  1.00000000e-15
		</DataArray>
		<DataArray type="Float32" Name="rhs_velocity" NumberOfComponents="3" format="ascii">
		  1.00000000e-15  1.00000000e-15 0
		  1.00000000e-15  1.00000000e-15 0
		  1.00000000e-15  1.00000000e-15 0
		  1.00000000e-15  1.00000000e-15 0
		  1.00000000e-15  1.00000000e-15 0
		  1.00000000e-15  1.00000000e-15 0
		</DataArray>
		<DataArray type="Float32" Name="rhs_E" format="ascii">
		  1.00000000e-15  1.00000000e-15  1.00000000e-15  1.00000000e-15  1.00000000e-15  1.00000000e-15
		</DataArray>
	</PointData>
</Piece>


<Piece NumberOfPoints="6" NumberOfCells="4">
	<Points>
		<DataArray type="Float32" NumberOfComponents="3" format="ascii">
		  5.38468324e-01 -2.48359048e-02 0
		  5.71506470e-01 -1.18970134e-02 0
		  6.04452367e-01  1.00000000e-15 0
		  5.19437557e-01 -6.65697691e-03 0
		  5.52226184e-01  1.00000000e-15 0
		  5.00000000e-01  1.00000000e-15 0
		</DataArray>
	</Points>
	<Cells>
		<DataArray type="Int32" Name="connectivity" format="ascii">
		   0   1   3
		   1   2   4
		   3   4   5
		   1   3   4
		</DataArray>
		<DataArray type="Int32" Name="offsets" format="ascii">
		   3   6   9  12
		</DataArray>
		<DataArray type="UInt8" Name="types" format="ascii">
		   5   5   5   5
		</DataArray>
	</Cells>
	<PointData Scalars="Scalars" Vectors="Vectors">
		<DataArray type="Int32" Name="index" format="ascii">
		   1   1   1   1   1   1
		</DataArray>
		<DataArray type="Int32" Name="p_ref" format="ascii">
		   2   2   2   2   2   2
		</DataArray>
		<DataArray type="Int32" Name="ml" format="ascii">
		   0   0   0   0   0   0
		</DataArray>
		<DataArray type="Float32" Name="$\rho$" format="ascii">
		  1.00088832e+00  1.00089019e+00  1.00071955e+00  1.00115596e+00  1.00040965e+00  1.00227064e+00
		</DataArray>
		<DataArray type="Float32" Name="$\mathbf{v}$" NumberOfComponents="3" format="ascii">
		  1.03602915e-01 -5.46128806e-03 0
		  1.05967189e-01 -4.68156244e-03 0
		  1.00183306e-01 -5.53199366e-03 0
		  1.01874961e-01 -7.25842194e-03 0
		  9.37083088e-02 -6.08508751e-03 0
		  8.26844383e-02 -8.29712083e-03 0
		</DataArray>
		<DataArray type="Float32" Name="$\mathit{p}$" format="ascii">
		  1.00132752e+00  1.00136663e+00  1.00132061e+00  1.00173848e+00  1.00094043e+00  1.00357077e+00
		</DataArray>
		<DataArray type="Float32" Name="$\mathit{s}$" format="ascii">
		  8.35405561e-05  1.19987954e-04  3.12727828e-04  1.19566025e-04  3.66594333e-04  3.89121878e-04
		</DataArray>
		<DataArray type="Float32" Name="mach" format="ascii">
		  8.76627819e-02  8.96246500e-02  8.47738789e-02  8.62932152e-02  7.93437335e-02  7.01865491e-02
		</DataArray>
		<DataArray type="Float32" Name="rhs_rho" format="ascii">
		  1.00000000e-15  1.00000000e-15  1.00000000e-15  1.00000000e-15  1.00000000e-15  1.00000000e-15
		</DataArray>
		<DataArray type="Float32" Name="rhs_velocity" NumberOfComponents="3" format="ascii">
		  1.00000000e-15  1.00000000e-15 0
		  1.00000000e-15  1.00000000e-15 0
		  1.00000000e-15  1.00000000e-15 0
		  1.00000000e-15  1.00000000e-15 0
		  1.00000000e-15  1.00000000e-15 0
		  1.00000000e-15  1.00000000e-15 0
		</DataArray>
		<DataArray type="Float32" Name="rhs_E" format="ascii">
		  1.00000000e-15  1.00000000e-15  1.00000000e-15  1.00000000e-15  1.00000000e-15  1.00000000e-15
		</DataArray>
	</PointData>
</Piece>


<Piece NumberOfPoints="6" NumberOfCells="4">
	<Points>
		<DataArray type="Float32" NumberOfComponents="3" format="ascii">
		  6.04452367e-01  1.00000000e-15 0
		  5.71506470e-01 -1.18970134e-02 0
		  5.38468324e-01 -2.48359048e-02 0
		  6.67123780e-01  1.00000000e-15 0
		  6.33989159e-01 -1.81850564e-02 0
		  7.29795193e-01  1.00000000e-15 0
		</DataArray>
	</Points>
	<Cells>
		<DataArray type="Int32" Name="connectivity" format="ascii">
		   0   1   3
		   1   2   4
		   3   4   5
		   1   3   4
		</DataArray>
		<DataArray type="Int32" Name="offsets" format="ascii">
		   3   6   9  12
		</DataArray>
		<DataArray type="UInt8" Name="types" format="ascii">
		   5   5   5   5
		</DataArray>
	</Cells>
	<PointData Scalars="Scalars" Vectors="Vectors">
		<DataArray type="Int32" Name="index" format="ascii">
		   2   2   2   2   2   2
		</DataArray>
		<DataArray type="Int32" Name="p_ref" format="ascii">
		   2   2   2   2   2   2
		</DataArray>
		<DataArray type="Int32" Name="ml" format="ascii">
		   0   0   0   0   0   0
		</DataArray>
		<DataArray type="Float32" Name="$\rho$" format="ascii">
		  1.00038812e+00  1.00070414e+00  1.00089338e+00  1.00021502e+00  1.00045124e+00  1.00021042e+00
		</DataArray>
		<DataArray type="Float32" Name="$\mathbf{v}$" NumberOfComponents="3" format="ascii">
		  1.01526898e-01 -5.37303293e-03 0
		  1.05616720e-01 -5.09104978e-03 0
		  1.05127752e-01 -4.78151335e-03 0
		  1.05637240e-01 -4.45480736e-03 0
		  1.09009635e-01 -4.23308270e-03 0
		  1.07548328e-01 -3.82529712e-03 0
		</DataArray>
		<DataArray type="Float32" Name="$\mathit{p}$" format="ascii">
		  1.00084603e+00  1.00111197e+00  1.00130475e+00  1.00057507e+00  1.00074907e+00  1.00054329e+00
		</DataArray>
		<DataArray type="Float32" Name="$\mathit{s}$" format="ascii">
		  3.02400314e-04  1.25892626e-04  5.37360101e-05  2.73904284e-04  1.17190914e-04  2.48592217e-04
		</DataArray>
		<DataArray type="Float32" Name="mach" format="ascii">
		  8.59063085e-02  8.93478576e-02  8.89227482e-02  8.93430350e-02  9.21856738e-02  9.09372729e-02
		</DataArray>
		<DataArray type="Float32" Name="rhs_rho" format="ascii">
		  1.00000000e-15  1.00000000e-15  1.00000000e-15  1.00000000e-15  1.00000000e-15  1.00000000e-15
		</DataArray>
		<DataArray type="Float32" Name="rhs_velocity" NumberOfComponents="3" format="ascii">
		  1.00000000e-15  1.00000000e-15 0
		  1.00000000e-15  1.00000000e-15 0
		  1.00000000e-15  1.00000000e-15 0
		  1.00000000e-15  1.00000000e-15 0
		  1.00000000e-15  1.00000000e-15 0
		  1.00000000e-15  1.00000000e-15 0
		</DataArray>
		<DataArray type="Float32" Name="rhs_E" format="ascii">
		  1.00000000e-15  1.00000000e-15  1.00000000e-15  1.00000000e-15  1.00000000e-15  1.00000000e-15
		</DataArray>
	</PointData>
</Piece>


<Piece NumberOfPoints="6" NumberOfCells="4">
	<Points>
		<DataArray type="Float32" NumberOfComponents="3" format="ascii">
		  7.29795193e-01  1.00000000e-15 0
		  6.33989159e-01 -1.81850564e-02 0
		  5.38468324e-01 -2.48359048e-02 0
		  6.96470078e-01 -2.44768642e-02 0
		  6.00118497e-01 -3.73522914e-02 0
		  6.61768669e-01 -4.98686780e-02 0
		</DataArray>
	</Points>
	<Cells>
		<DataArray type="Int32" Name="connectivity" format="ascii">
		   0   1   3
		   1   2   4
		   3   4   5
		   1   3   4
		</DataArray>
		<DataArray type="Int32" Name="offsets" format="ascii">
		   3   6   9  12
		</DataArray>
		<DataArray type="UInt8" Name="types" format="ascii">
		   5   5   5   5
		</DataArray>
	</Cells>
	<PointData Scalars="Scalars" Vectors="Vectors">
		<DataArray type="Int32" Name="index" format="ascii">
		   3   3   3   3   3   3
		</DataArray>
		<DataArray type="Int32" Name="p_ref" format="ascii">
		   2   2   2   2   2   2
		</DataArray>
		<DataArray type="Int32" Name="ml" format="ascii">
		   0   0   0   0   0   0
		</DataArray>
		<DataArray type="Float32" Name="$\rho$" format="ascii">
		  1.00016336e+00  1.00045191e+00  1.00093521e+00  1.00037583e+00  1.00060771e+00  1.00047862e+00
		</DataArray>
		<DataArray type="Float32" Name="$\mathbf{v}$" NumberOfComponents="3" format="ascii">
		  1.07405657e-01 -3.85315637e-03 0
		  1.09057538e-01 -4.23993751e-03 0
		  1.06410787e-01 -4.68531229e-03 0
		  1.11247708e-01 -3.66678699e-03 0
		  1.09706226e-01 -3.87568486e-03 0
		  1.11846442e-01 -3.25917158e-03 0
		</DataArray>
		<DataArray type="Float32" Name="$\mathit{p}$" format="ascii">
		  1.00049024e+00  1.00074800e+00  1.00136426e+00  1.00061879e+00  1.00088614e+00  1.00069397e+00
		</DataArray>
		<DataArray type="Float32" Name="$\mathit{s}$" format="ascii">
		  2.61437682e-04  1.15191234e-04  5.46504743e-05  9.25340069e-05  3.52191251e-05  2.38234986e-05
		</DataArray>
		<DataArray type="Float32" Name="mach" format="ascii">
		  9.08179029e-02  9.22264275e-02  9.00013758e-02  9.40611110e-02  9.27636192e-02  9.45574442e-02
		</DataArray>
		<DataArray type="Float32" Name="rhs_rho" format="ascii">
		  1.00000000e-15  1.00000000e-15  1.00000000e-15  1.00000000e-15  1.00000000e-15  1.00000000e-15
		</DataArray>
		<DataArray type="Float32" Name="rhs_velocity" NumberOfComponents="3" format="ascii">
		  1.00000000e-15  1.00000000e-15 0
		  1.00000000e-15  1.00000000e-15 0
		  1.00000000e-15  1.00000000e-15 0
		  1.00000000e-15  1.00000000e-15 0
		  1.00000000e-15  1.00000000e-15 0
		  1.00000000e-15  1.00000000e-15 0
		</DataArray>
		<DataArray type="Float32" Name="rhs_E" format="ascii">
		  1.00000000e-15  1.00000000e-15  1.00000000e-15  1.00000000e-15  1.00000000e-15  1.00000000e-15
		</DataArray>
	</PointData>
</Piece>


<Piece NumberOfPoints="6" NumberOfCells="4">
	<Points>
		<DataArray type="Float32" NumberOfComponents="3" format="ascii">
		  7.29795193e-01  1.00000000e-15 0
		  6.96470078e-01 -2.44768642e-02 0
		  6.61768669e-01 -4.98686780e-02 0
		  7.71447174e-01 -3.20270331e-02 0
		  7.35748871e-01 -6.48883409e-02 0
		  8.09729073e-01 -7.99080037e-02 0
		</DataArray>
	</Points>
	<Cells>
		<DataArray type="Int32" Name="connectivity" format="ascii">
		   0   1   3
		   1   2   4
		   3   4   5
		   1   3   4
		</DataArray>
		<DataArray type="Int32" Name="offsets" format="ascii">
		   3   6   9  12
		</DataArray>
		<DataArray type="UInt8" Name="types" format="ascii">
		   5   5   5   5
		</DataArray>
	</Cells>
	<PointData Scalars="Scalars" Vectors="Vectors">
		<DataArray type="Int32" Name="index" format="ascii">
		   4   4   4   4   4   4
		</DataArray>
		<DataArray type="Int32" Name="p_ref" format="ascii">
		   2   2   2   2   2   2
		</DataArray>
		<DataArray type="Int32" Name="ml" format="ascii">
		   0   0   0   0   0   0
		</DataArray>
		<DataArray type="Float32" Name="$\rho$" format="ascii">
		  1.00009609e+00  1.00035809e+00  1.00044656e+00  1.00027325e+00  1.00033758e+00  1.00026872e+00
		</DataArray>
		<DataArray type="Float32" Name="$\mathbf{v}$" NumberOfComponents="3" format="ascii">
		  1.07492832e-01 -3.69429401e-03 0
		  1.11375294e-01 -3.62834758e-03 0
		  1.11807639e-01 -3.27618547e-03 0
		  1.12848679e-01 -3.23874495e-03 0
		  1.13287173e-01 -2.90405628e-03 0
		  1.14457255e-01 -2.48392386e-03 0
		</DataArray>
		<DataArray type="Float32" Name="$\mathit{p}$" format="ascii">
		  1.00040740e+00  1.00059141e+00  1.00065353e+00  1.00045504e+00  1.00049116e+00  1.00038771e+00
		</DataArray>
		<DataArray type="Float32" Name="$\mathit{s}$" format="ascii">
		  2.72794335e-04  8.99887166e-05  2.82699687e-05  7.24311347e-05  1.85113468e-05  1.14865698e-05
		</DataArray>
		<DataArray type="Float32" Name="mach" format="ascii">
		  9.08875166e-02  9.41682592e-02  9.45254833e-02  9.54051438e-02  9.57692379e-02  9.67510580e-02
		</DataArray>
		<DataArray type="Float32" Name="rhs_rho" format="ascii">
		  1.00000000e-15  1.00000000e-15  1.00000000e-15  1.00000000e-15  1.00000000e-15  1.00000000e-15
		</DataArray>
		<DataArray type="Float32" Name="rhs_velocity" NumberOfComponents="3" format="ascii">
		  1.00000000e-15  1.00000000e-15 0
		  1.00000000e-15  1.00000000e-15 0
		  1.00000000e-15  1.00000000e-15 0
		  1.00000000e-15  1.00000000e-15 0
		  1.00000000e-15  1.00000000e-15 0
		  1.00000000e-15  1.00000000e-15 0
		</DataArray>
		<DataArray type="Float32" Name="rhs_E" format="ascii">
		  1.00000000e-15  1.00000000e-15  1.00000000e-15  1.00000000e-15  1.00000000e-15  1.00000000e-15
		</DataArray>
	</PointData>
</Piece>


<Piece NumberOfPoints="6" NumberOfCells="4">
	<Points>
		<DataArray type="Float32" NumberOfComponents="3" format="ascii">
		  8.09729073e-01 -7.99080037e-02 0
		  8.46426395e-01 -3.95726842e-02 0
		  8.80206574e-01 -1.21243763e-15 0
		  7.71447174e-01 -3.20270331e-02 0
		  8.05000883e-01  1.00000000e-15 0
		  7.29795193e-01  1.00000000e-15 0
		</DataArray>
	</Points>
	<Cells>
		<DataArray type="Int32" Name="connectivity" format="ascii">
		   0   1   3
		   1   2   4
		   3   4   5
		   1   3   4
		</DataArray>
		<DataArray type="Int32" Name="offsets" format="ascii">
		   3   6   9  12
		</DataArray>
		<DataArray type="UInt8" Name="types" format="ascii">
		   5   5   5   5
		</DataArray>
	</Cells>
	<PointData Scalars="Scalars" Vectors="Vectors">
		<DataArray type="Int32" Name="index" format="ascii">
		   5   5   5   5   5   5
		</DataArray>
		<DataArray type="Int32" Name="p_ref" format="ascii">
		   2   2   2   2   2   2
		</DataArray>
		<DataArray type="Int32" Name="ml" format="ascii">
		   0   0   0   0   0   0
		</DataArray>
		<DataArray type="Float32" Name="$\rho$" format="ascii">
		  1.00026746e+00  1.00021646e+00  1.00004921e+00  1.00026877e+00  1.00008844e+00  1.00014239e+00
		</DataArray>
		<DataArray type="Float32" Name="$\mathbf{v}$" NumberOfComponents="3" format="ascii">
		  1.14724572e-01 -2.85075203e-03 0
		  1.13711836e-01 -2.74151094e-03 0
		  1.10838747e-01 -3.01347623e-03 0
		  1.12795565e-01 -3.18076434e-03 0
		  1.09422031e-01 -3.35742910e-03 0
		  1.07670393e-01 -3.89748933e-03 0
		</DataArray>
		<DataArray type="Float32" Name="$\mathit{p}$" format="ascii">
		  1.00037486e+00  1.00036844e+00  1.00029066e+00  1.00045200e+00  1.00036487e+00  1.00046494e+00
		</DataArray>
		<DataArray type="Float32" Name="$\mathit{s}$" format="ascii">
		  3.84493807e-07  6.53664562e-05  2.21722845e-04  7.56682107e-05  2.40990871e-04  2.65508812e-04
		</DataArray>
		<DataArray type="Float32" Name="mach" format="ascii">
		  9.69846835e-02  9.61246653e-02  9.36991439e-02  9.53588137e-02  9.25092330e-02  9.10430092e-02
		</DataArray>
		<DataArray type="Float32" Name="rhs_rho" format="ascii">
		  1.00000000e-15  1.00000000e-15  1.00000000e-15  1.00000000e-15  1.00000000e-15  1.00000000e-15
		</DataArray>
		<DataArray type="Float32" Name="rhs_velocity" NumberOfComponents="3" format="ascii">
		  1.00000000e-15  1.00000000e-15 0
		  1.00000000e-15  1.00000000e-15 0
		  1.00000000e-15  1.00000000e-15 0
		  1.00000000e-15  1.00000000e-15 0
		  1.00000000e-15  1.00000000e-15 0
		  1.00000000e-15  1.00000000e-15 0
		</DataArray>
		<DataArray type="Float32" Name="rhs_E" format="ascii">
		  1.00000000e-15  1.00000000e-15  1.00000000e-15  1.00000000e-15  1.00000000e-15  1.00000000e-15
		</DataArray>
	</PointData>
</Piece>


<Piece NumberOfPoints="6" NumberOfCells="4">
	<Points>
		<DataArray type="Float32" NumberOfComponents="3" format="ascii">
		  8.80206574e-01 -1.21960035e-15 0
		  8.46426395e-01 -3.95726842e-02 0
		  8.09729073e-01 -7.99080037e-02 0
		  9.70453403e-01 -1.52130348e-15 0
		  9.36401462e-01 -4.86274657e-02 0
		  1.06070023e+00 -1.78565359e-15 0
		</DataArray>
	</Points>
	<Cells>
		<DataArray type="Int32" Name="connectivity" format="ascii">
		   0   1   3
		   1   2   4
		   3   4   5
		   1   3   4
		</DataArray>
		<DataArray type="Int32" Name="offsets" format="ascii">
		   3   6   9  12
		</DataArray>
		<DataArray type="UInt8" Name="types" format="ascii">
		   5   5   5   5
		</DataArray>
	</Cells>
	<PointData Scalars="Scalars" Vectors="Vectors">
		<DataArray type="Int32" Name="index" format="ascii">
		   6   6   6   6   6   6
		</DataArray>
		<DataArray type="Int32" Name="p_ref" format="ascii">
		   2   2   2   2   2   2
		</DataArray>
		<DataArray type="Int32" Name="ml" format="ascii">
		   0   0   0   0   0   0
		</DataArray>
		<DataArray type="Float32" Name="$\rho$" format="ascii">
		  1.00005702e+00  1.00021076e+00  1.00028408e+00  1.00002326e+00  1.00016522e+00  1.00001026e+00
		</DataArray>
		<DataArray type="Float32" Name="$\mathbf{v}$" NumberOfComponents="3" format="ascii">
		  1.10865356e-01 -2.98934591e-03 0
		  1.13703243e-01 -2.75699027e-03 0
		  1.14881104e-01 -2.62885486e-03 0
		  1.11805863e-01 -2.64779317e-03 0
		  1.14599045e-01 -2.48498221e-03 0
		  1.12427867e-01 -2.29431287e-03 0
		</DataArray>
		<DataArray type="Float32" Name="$\mathit{p}$" format="ascii">
		  1.00029789e+00  1.00036231e+00  1.00038900e+00  1.00023626e+00  1.00028661e+00  1.00020653e+00
		</DataArray>
		<DataArray type="Float32" Name="$\mathit{s}$" format="ascii">
		  2.18021806e-04  6.72002854e-05 -8.73802424e-06  2.03671774e-04  5.52781184e-05  1.92148393e-04
		</DataArray>
		<DataArray type="Float32" Name="mach" format="ascii">
		  9.37210966e-02  9.61177436e-02  9.71125790e-02  9.45096306e-02  9.68707602e-02  9.50293480e-02
		</DataArray>
		<DataArray type="Float32" Name="rhs_rho" format="ascii">
		  1.00000000e-15  1.00000000e-15  1.00000000e-15  1.00000000e-15  1.00000000e-15  1.00000000e-15
		</DataArray>
		<DataArray type="Float32" Name="rhs_velocity" NumberOfComponents="3" format="ascii">
		  1.00000000e-15  1.00000000e-15 0
		  1.00000000e-15  1.00000000e-15 0
		  1.00000000e-15  1.00000000e-15 0
		  1.00000000e-15  1.00000000e-15 0
		  1.00000000e-15  1.00000000e-15 0
		  1.00000000e-15  1.00000000e-15 0
		</DataArray>
		<DataArray type="Float32" Name="rhs_E" format="ascii">
		  1.00000000e-15  1.00000000e-15  1.00000000e-15  1.00000000e-15  1.00000000e-15  1.00000000e-15
		</DataArray>
	</PointData>
</Piece>


<Piece NumberOfPoints="6" NumberOfCells="4">
	<Points>
		<DataArray type="Float32" NumberOfComponents="3" format="ascii">
		  1.06070023e+00 -1.79157953e-15 0
		  9.36401462e-01 -4.86274657e-02 0
		  8.09729073e-01 -7.99080037e-02 0
		  1.02637398e+00 -5.76876684e-02 0
		  8.98505316e-01 -9.79315994e-02 0
		  9.87281559e-01 -1.15955195e-01 0
		</DataArray>
	</Points>
	<Cells>
		<DataArray type="Int32" Name="connectivity" format="ascii">
		   0   1   3
		   1   2   4
		   3   4   5
		   1   3   4
		</DataArray>
		<DataArray type="Int32" Name="offsets" format="ascii">
		   3   6   9  12
		</DataArray>
		<DataArray type="UInt8" Name="types" format="ascii">
		   5   5   5   5
		</DataArray>
	</Cells>
	<PointData Scalars="Scalars" Vectors="Vectors">
		<DataArray type="Int32" Name="index" format="ascii">
		   7   7   7   7   7   7
		</DataArray>
		<DataArray type="Int32" Name="p_ref" format="ascii">
		   2   2   2   2   2   2
		</DataArray>
		<DataArray type="Int32" Name="ml" format="ascii">
		   0   0   0   0   0   0
		</DataArray>
		<DataArray type="Float32" Name="$\rho$" format="ascii">
		  9.99980732e-01  1.00016793e+00  1.00029534e+00  1.00014687e+00  1.00022781e+00  1.00018843e+00
		</DataArray>
		<DataArray type="Float32" Name="$\mathbf{v}$" NumberOfComponents="3" format="ascii">
		  1.12205143e-01 -2.35188879e-03 0
		  1.14652905e-01 -2.47671522e-03 0
		  1.14905434e-01 -2.59966160e-03 0
		  1.15400237e-01 -2.21863334e-03 0
		  1.15689784e-01 -2.31145367e-03 0
		  1.16202981e-01 -2.07530091e-03 0
		</DataArray>
		<DataArray type="Float32" Name="$\mathit{p}$" format="ascii">
		  1.00017692e+00  1.00028740e+00  1.00040999e+00  1.00024373e+00  1.00031497e+00  1.00026236e+00
		</DataArray>
		<DataArray type="Float32" Name="$\mathit{s}$" format="ascii">
		  2.03883036e-04  5.22743932e-05 -3.50650086e-06  3.81022570e-05 -3.97588762e-06 -1.45304312e-06
		</DataArray>
		<DataArray type="Float32" Name="mach" format="ascii">
		  9.48421798e-02  9.69162085e-02  9.71321012e-02  9.75443009e-02  9.77909664e-02  9.82214745e-02
		</DataArray>
		<DataArray type="Float32" Name="rhs_rho" format="ascii">
		  1.00000000e-15  1.00000000e-15  1.00000000e-15  1.00000000e-15  1.00000000e-15  1.00000000e-15
		</DataArray>
		<DataArray type="Float32" Name="rhs_velocity" NumberOfComponents="3" format="ascii">
		  1.00000000e-15  1.00000000e-15 0
		  1.00000000e-15  1.00000000e-15 0
		  1.00000000e-15  1.00000000e-15 0
		  1.00000000e-15  1.00000000e-15 0
		  1.00000000e-15  1.00000000e-15 0
		  1.00000000e-15  1.00000000e-15 0
		</DataArray>
		<DataArray type="Float32" Name="rhs_E" format="ascii">
		  1.00000000e-15  1.00000000e-15  1.00000000e-15  1.00000000e-15  1.00000000e-15  1.00000000e-15
		</DataArray>
	</PointData>
</Piece>


<Piece NumberOfPoints="6" NumberOfCells="4">
	<Points>
		<DataArray type="Float32" NumberOfComponents="3" format="ascii">
		  1.06070023e+00 -1.78260765e-15 0
		  1.02637398e+00 -5.76876684e-02 0
		  9.87281559e-01 -1.15955195e-01 0
		  1.13434100e+00 -6.85599115e-02 0
		  1.09381305e+00 -1.37583510e-01 0
		  1.20034454e+00 -1.59211824e-01 0
		</DataArray>
	</Points>
	<Cells>
		<DataArray type="Int32" Name="connectivity" format="ascii">
		   0   1   3
		   1   2   4
		   3   4   5
		   1   3   4
		</DataArray>
		<DataArray type="Int32" Name="offsets" format="ascii">
		   3   6   9  12
		</DataArray>
		<DataArray type="UInt8" Name="types" format="ascii">
		   5   5   5   5
		</DataArray>
	</Cells>
	<PointData Scalars="Scalars" Vectors="Vectors">
		<DataArray type="Int32" Name="index" format="ascii">
		   8   8   8   8   8   8
		</DataArray>
		<DataArray type="Int32" Name="p_ref" format="ascii">
		   2   2   2   2   2   2
		</DataArray>
		<DataArray type="Int32" Name="ml" format="ascii">
		   0   0   0   0   0   0
		</DataArray>
		<DataArray type="Float32" Name="$\rho$" format="ascii">
		  9.99962716e-01  1.00014697e+00  1.00017924e+00  1.00012383e+00  1.00014270e+00  1.00011228e+00
		</DataArray>
		<DataArray type="Float32" Name="$\mathbf{v}$" NumberOfComponents="3" format="ascii">
		  1.12144642e-01 -2.30022240e-03 0
		  1.15436750e-01 -2.19149726e-03 0
		  1.16181339e-01 -2.07038625e-03 0
		  1.16041529e-01 -2.02232146e-03 0
		  1.16540563e-01 -1.86615865e-03 0
		  1.16836364e-01 -1.64685580e-03 0
		</DataArray>
		<DataArray type="Float32" Name="$\mathit{p}$" format="ascii">
		  1.00015787e+00  1.00024201e+00  1.00025252e+00  1.00019950e+00  1.00020354e+00  1.00016406e+00
		</DataArray>
		<DataArray type="Float32" Name="$\mathit{s}$" format="ascii">
		  2.10059555e-04  3.62404899e-05  1.57229457e-06  2.61326637e-05  3.75320694e-06  6.86271988e-06
		</DataArray>
		<DataArray type="Float32" Name="mach" format="ascii">
		  9.47902071e-02  9.75748036e-02  9.82031454e-02  9.80841739e-02  9.85043839e-02  9.87520030e-02
		</DataArray>
		<DataArray type="Float32" Name="rhs_rho" format="ascii">
		  1.00000000e-15  1.00000000e-15  1.00000000e-15  1.00000000e-15  1.00000000e-15  1.00000000e-15
		</DataArray>
		<DataArray type="Float32" Name="rhs_velocity" NumberOfComponents="3" format="ascii">
		  1.00000000e-15  1.00000000e-15 0
		  1.00000000e-15  1.00000000e-15 0
		  1.00000000e-15  1.00000000e-15 0
		  1.00000000e-15  1.00000000e-15 0
		  1.00000000e-15  1.00000000e-15 0
		  1.00000000e-15  1.00000000e-15 0
		</DataArray>
		<DataArray type="Float32" Name="rhs_E" format="ascii">
		  1.00000000e-15  1.00000000e-15  1.00000000e-15  1.00000000e-15  1.00000000e-15  1.00000000e-15
		</DataArray>
	</PointData>
</Piece>


<Piece NumberOfPoints="6" NumberOfCells="4">
	<Points>
		<DataArray type="Float32" NumberOfComponents="3" format="ascii">
		  1.20034454e+00 -1.59211824e-01 0
		  1.24231108e+00 -7.94256491e-02 0
		  1.27729262e+00 -2.46792707e-15 0
		  1.13434100e+00 -6.85599115e-02 0
		  1.16899643e+00 -2.16632687e-15 0
		  1.06070023e+00 -1.77911478e-15 0
		</DataArray>
	</Points>
	<Cells>
		<DataArray type="Int32" Name="connectivity" format="ascii">
		   0   1   3
		   1   2   4
		   3   4   5
		   1   3   4
		</DataArray>
		<DataArray type="Int32" Name="offsets" format="ascii">
		   3   6   9  12
		</DataArray>
		<DataArray type="UInt8" Name="types" format="ascii">
		   5   5   5   5
		</DataArray>
	</Cells>
	<PointData Scalars="Scalars" Vectors="Vectors">
		<DataArray type="Int32" Name="index" format="ascii">
		   9   9   9   9   9   9
		</DataArray>
		<DataArray type="Int32" Name="p_ref" format="ascii">
		   2   2   2   2   2   2
		</DataArray>
		<DataArray type="Int32" Name="ml" format="ascii">
		   0   0   0   0   0   0
		</DataArray>
		<DataArray type="Float32" Name="$\rho$" format="ascii">
		  1.00009436e+00  1.00010613e+00  9.99957760e-01  1.00012394e+00  9.99966510e-01  9.99984602e-01
		</DataArray>
		<DataArray type="Float32" Name="$\mathbf{v}$" NumberOfComponents="3" format="ascii">
		  1.16896314e-01 -1.79886290e-03 0
		  1.16445072e-01 -1.78854689e-03 0
		  1.13391369e-01 -1.91853839e-03 0
		  1.16037250e-01 -2.00185248e-03 0
		  1.12842307e-01 -2.11410959e-03 0
		  1.12177242e-01 -2.39453297e-03 0
		</DataArray>
		<DataArray type="Float32" Name="$\mathit{p}$" format="ascii">
		  1.00013719e+00  1.00016880e+00  1.00012121e+00  1.00020033e+00  1.00014616e+00  1.00018702e+00
		</DataArray>
		<DataArray type="Float32" Name="$\mathit{s}$" format="ascii">
		  5.08887315e-06  2.02119816e-05  1.80337578e-04  2.67971679e-05  1.93035741e-04  2.08563645e-04
		</DataArray>
		<DataArray type="Float32" Name="mach" format="ascii">
		  9.88049979e-02  9.84225727e-02  9.58390821e-02  9.80802233e-02  9.53773246e-02  9.48190737e-02
		</DataArray>
		<DataArray type="Float32" Name="rhs_rho" format="ascii">
		  1.00000000e-15  1.00000000e-15  1.00000000e-15  1.00000000e-15  1.00000000e-15  1.00000000e-15
		</DataArray>
		<DataArray type="Float32" Name="rhs_velocity" NumberOfComponents="3" format="ascii">
		  1.00000000e-15  1.00000000e-15 0
		  1.00000000e-15  1.00000000e-15 0
		  1.00000000e-15  1.00000000e-15 0
		  1.00000000e-15  1.00000000e-15 0
		  1.00000000e-15  1.00000000e-15 0
		  1.00000000e-15  1.00000000e-15 0
		</DataArray>
		<DataArray type="Float32" Name="rhs_E" format="ascii">
		  1.00000000e-15  1.00000000e-15  1.00000000e-15  1.00000000e-15  1.00000000e-15  1.00000000e-15
		</DataArray>
	</PointData>
</Piece>


<Piece NumberOfPoints="6" NumberOfCells="4">
	<Points>
		<DataArray type="Float32" NumberOfComponents="3" format="ascii">
		  1.27729262e+00 -2.48147240e-15 0
		  1.24231108e+00 -7.94256491e-02 0
		  1.20034454e+00 -1.59211824e-01 0
		  1.40724804e+00 -2.92360920e-15 0
		  1.37187516e+00 -9.24645334e-02 0
		  1.53720347e+00 -3.29046676e-15 0
		</DataArray>
	</Points>
	<Cells>
		<DataArray type="Int32" Name="connectivity" format="ascii">
		   0   1   3
		   1   2   4
		   3   4   5
		   1   3   4
		</DataArray>
		<DataArray type="Int32" Name="offsets" format="ascii">
		   3   6   9  12
		</DataArray>
		<DataArray type="UInt8" Name="types" format="ascii">
		   5   5   5   5
		</DataArray>
	</Cells>
	<PointData Scalars="Scalars" Vectors="Vectors">
		<DataArray type="Int32" Name="index" format="ascii">
		  10  10  10  10  10  10
		</DataArray>
		<DataArray type="Int32" Name="p_ref" format="ascii">
		   2   2   2   2   2   2
		</DataArray>
		<DataArray type="Int32" Name="ml" format="ascii">
		   0   0   0   0   0   0
		</DataArray>
		<DataArray type="Float32" Name="$\rho$" format="ascii">
		  9.99958166e-01  1.00010401e+00  1.00009655e+00  9.99947732e-01  1.00008825e+00  9.99941455e-01
		</DataArray>
		<DataArray type="Float32" Name="$\mathbf{v}$" NumberOfComponents="3" format="ascii">
		  1.13377854e-01 -1.91135485e-03 0
		  1.16453876e-01 -1.79383569e-03 0
		  1.16857279e-01 -1.73960210e-03 0
		  1.13844952e-01 -1.72588649e-03 0
		  1.16862741e-01 -1.62840139e-03 0
		  1.14213543e-01 -1.52653272e-03 0
		</DataArray>
		<DataArray type="Float32" Name="$\mathit{p}$" format="ascii">
		  1.00012177e+00  1.00016580e+00  1.00014117e+00  1.00009582e+00  1.00013673e+00  1.00007760e+00
		</DataArray>
		<DataArray type="Float32" Name="$\mathit{s}$" format="ascii">
		  1.80334707e-04  2.01835934e-05  5.99460399e-06  1.68990839e-04  1.31656615e-05  1.59562556e-04
		</DataArray>
		<DataArray type="Float32" Name="mach" format="ascii">
		  9.58275521e-02  9.84301237e-02  9.87711660e-02  9.62204766e-02  9.87742372e-02  9.65301122e-02
		</DataArray>
		<DataArray type="Float32" Name="rhs_rho" format="ascii">
		  1.00000000e-15  1.00000000e-15  1.00000000e-15  1.00000000e-15  1.00000000e-15  1.00000000e-15
		</DataArray>