<?xml version="1.0"?>
<VTKFile type="UnstructuredGrid" version="0.1" byte_order="LittleEndian">
<UnstructuredGrid>

<Piece NumberOfPoints="3" NumberOfCells="1">
	<Points>
		<DataArray type="Float32" NumberOfComponents="3" format="ascii">
		  5.00000000e-01  1.00000000e-15 0
		  4.35718025e-01 -3.16854934e-03 0
		  5.38468324e-01 -2.40335172e-02 0
		</DataArray>
	</Points>
	<Cells>
		<DataArray type="Int32" Name="connectivity" format="ascii">
		   0   1   2
		</DataArray>
		<DataArray type="Int32" Name="offsets" format="ascii">
		   3
		</DataArray>
		<DataArray type="UInt8" Name="types" format="ascii">
		   5
		</DataArray>
	</Cells>
	<PointData Scalars="Scalars" Vectors="Vectors">
		<DataArray type="Int32" Name="index" format="ascii">
		   0   0   0
		</DataArray>
		<DataArray type="Int32" Name="p_ref" format="ascii">
		   1   1   1
		</DataArray>
		<DataArray type="Int32" Name="ml" format="ascii">
		   0   0   0
		</DataArray>
		<DataArray type="Float32" Name="$\rho$" format="ascii">
		  1.00113886e+00  1.00170213e+00  1.00086309e+00
		</DataArray>
		<DataArray type="Float32" Name="$\mathbf{v}$" NumberOfComponents="3" format="ascii">
		  6.62305954e-02 -4.89153702e-04 0
		  8.91961887e-02  7.91769949e-03 0
		  1.09509283e-01 -6.54605102e-03 0
		</DataArray>
		<DataArray type="Float32" Name="$\mathit{p}$" format="ascii">
		  1.00211382e+00  1.00259678e+00  1.00129887e+00
		</DataArray>
		<DataArray type="Float32" Name="$\mathit{s}$" format="ascii">
		  5.18097484e-04  2.12454765e-04  9.02225476e-05
		</DataArray>
		<DataArray type="Float32" Name="mach" format="ascii">
		  5.59493594e-02  7.56471827e-02  9.26972643e-02
		</DataArray>
		<DataArray type="Float32" Name="rhs_rho" format="ascii">
		  1.00000000e-15  1.00000000e-15  1.00000000e-15
		</DataArray>
		<DataArray type="Float32" Name="rhs_velocity" NumberOfComponents="3" format="ascii">
		  1.00000000e-15  1.00000000e-15 0
		  1.00000000e-15  1.00000000e-15 0
		  1.00000000e-15  1.00000000e-15 0
		</DataArray>
		<DataArray type="Float32" Name="rhs_E" format="ascii">
		  1.00000000e-15  1.00000000e-15  1.00000000e-15
		</DataArray>
	</PointData>
</Piece>


<Piece NumberOfPoints="3" NumberOfCells="1">
	<Points>
		<DataArray type="Float32" NumberOfComponents="3" format="ascii">
		  5.38468324e-01 -2.40335172e-02 0
		  6.04452367e-01  1.00000000e-15 0
		  5.00000000e-01  1.00000000e-15 0
		</DataArray>
	</Points>
	<Cells>
		<DataArray type="Int32" Name="connectivity" format="ascii">
		   0   1   2
		</DataArray>
		<DataArray type="Int32" Name="offsets" format="ascii">
		   3
		</DataArray>
		<DataArray type="UInt8" Name="types" format="ascii">
		   5
		</DataArray>
	</Cells>
	<PointData Scalars="Scalars" Vectors="Vectors">
		<DataArray type="Int32" Name="index" format="ascii">
		   1   1   1
		</DataArray>
		<DataArray type="Int32" Name="p_ref" format="ascii">
		   1   1   1
		</DataArray>
		<DataArray type="Int32" Name="ml" format="ascii">
		   0   0   0
		</DataArray>
		<DataArray type="Float32" Name="$\rho$" format="ascii">
		  1.00075385e+00  9.99591058e-01  1.00142440e+00
		</DataArray>
		<DataArray type="Float32" Name="$\mathbf{v}$" NumberOfComponents="3" format="ascii">
		  1.05715183e-01 -5.38621689e-03 0
		  9.51471891e-02 -4.10324664e-03 0
		  8.41696755e-02 -6.80831485e-03 0
		</DataArray>
		<DataArray type="Float32" Name="$\mathit{p}$" format="ascii">
		  1.00116053e+00  1.00004887e+00  1.00264531e+00
		</DataArray>
		<DataArray type="Float32" Name="$\mathit{s}$" format="ascii">
		  1.04863537e-04  6.21506723e-04  6.49074131e-04
		</DataArray>
		<DataArray type="Float32" Name="mach" format="ascii">
		  8.94433568e-02  8.04703678e-02  7.13252322e-02
		</DataArray>
		<DataArray type="Float32" Name="rhs_rho" format="ascii">
		  1.00000000e-15  1.00000000e-15  1.00000000e-15
		</DataArray>
		<DataArray type="Float32" Name="rhs_velocity" NumberOfComponents="3" format="ascii">
		  1.00000000e-15  1.00000000e-15 0
		  1.00000000e-15  1.00000000e-15 0
		  1.00000000e-15  1.00000000e-15 0
		</DataArray>
		<DataArray type="Float32" Name="rhs_E" format="ascii">
		  1.00000000e-15  1.00000000e-15  1.00000000e-15
		</DataArray>
	</PointData>
</Piece>


<Piece NumberOfPoints="3" NumberOfCells="1">
	<Points>
		<DataArray type="Float32" NumberOfComponents="3" format="ascii">
		  6.04452367e-01  1.00000000e-15 0
		  5.38468324e-01 -2.40335172e-02 0
		  7.29795193e-01  1.00000000e-15 0
		</DataArray>
	</Points>
	<Cells>
		<DataArray type="Int32" Name="connectivity" format="ascii">
		   0   1   2
		</DataArray>
		<DataArray type="Int32" Name="offsets" format="ascii">
		   3
		</DataArray>
		<DataArray type="UInt8" Name="types" format="ascii">
		   5
		</DataArray>
	</Cells>
	<PointData Scalars="Scalars" Vectors="Vectors">
		<DataArray type="Int32" Name="index" format="ascii">
		   2   2   2
		</DataArray>
		<DataArray type="Int32" Name="p_ref" format="ascii">
		   1   1   1
		</DataArray>
		<DataArray type="Int32" Name="ml" format="ascii">
		   0   0   0
		</DataArray>
		<DataArray type="Float32" Name="$\rho$" format="ascii">
		  1.00012266e+00  1.00096282e+00  9.99672771e-01
		</DataArray>
		<DataArray type="Float32" Name="$\mathbf{v}$" NumberOfComponents="3" format="ascii">
		  9.28811170e-02 -4.61174134e-03 0
		  1.07736540e-01 -4.54146198e-03 0
		  1.00363584e-01 -3.23470688e-03 0
		</DataArray>
		<DataArray type="Float32" Name="$\mathit{p}$" format="ascii">
		  1.00080543e+00  1.00140637e+00  1.00012195e+00
		</DataArray>
		<DataArray type="Float32" Name="$\mathit{s}$" format="ascii">
		  6.33395611e-04  5.80737831e-05  5.80137680e-04
		</DataArray>
		<DataArray type="Float32" Name="mach" format="ascii">
		  7.85687600e-02  9.11146718e-02  8.48476938e-02
		</DataArray>
		<DataArray type="Float32" Name="rhs_rho" format="ascii">
		  1.00000000e-15  1.00000000e-15  1.00000000e-15
		</DataArray>
		<DataArray type="Float32" Name="rhs_velocity" NumberOfComponents="3" format="ascii">
		  1.00000000e-15  1.00000000e-15 0
		  1.00000000e-15  1.00000000e-15 0
		  1.00000000e-15  1.00000000e-15 0
		</DataArray>
		<DataArray type="Float32" Name="rhs_E" format="ascii">
		  1.00000000e-15  1.00000000e-15  1.00000000e-15
		</DataArray>
	</PointData>
</Piece>


<Piece NumberOfPoints="3" NumberOfCells="1">
	<Points>
		<DataArray type="Float32" NumberOfComponents="3" format="ascii">
		  7.29795193e-01  1.00000000e-15 0
		  5.38468324e-01 -2.40335172e-02 0
		  6.61768669e-01 -4.90714759e-02 0
		</DataArray>
	</Points>
	<Cells>
		<DataArray type="Int32" Name="connectivity" format="ascii">
		   0   1   2
		</DataArray>
		<DataArray type="Int32" Name="offsets" format="ascii">
		   3
		</DataArray>
		<DataArray type="UInt8" Name="types" format="ascii">
		   5
		</DataArray>
	</Cells>
	<PointData Scalars="Scalars" Vectors="Vectors">
		<DataArray type="Int32" Name="index" format="ascii">
		   3   3   3
		</DataArray>
		<DataArray type="Int32" Name="p_ref" format="ascii">
		   1   1   1
		</DataArray>
		<DataArray type="Int32" Name="ml" format="ascii">
		   0   0   0
		</DataArray>
		<DataArray type="Float32" Name="$\rho$" format="ascii">
		  9.99756784e-01  1.00081741e+00  1.00037940e+00
		</DataArray>
		<DataArray type="Float32" Name="$\mathbf{v}$" NumberOfComponents="3" format="ascii">
		  1.01825081e-01 -2.68401357e-03 0
		  1.07592875e-01 -4.85646220e-03 0
		  1.11103830e-01 -3.56144018e-03 0
		</DataArray>
		<DataArray type="Float32" Name="$\mathit{p}$" format="ascii">
		  1.00018489e+00  1.00127824e+00  1.00063293e+00
		</DataArray>
		<DataArray type="Float32" Name="$\mathit{s}$" format="ascii">
		  5.25419283e-04  1.33522958e-04  1.01671931e-04
		</DataArray>
		<DataArray type="Float32" Name="mach" format="ascii">
		  8.60693657e-02  9.10042116e-02  9.39362023e-02
		</DataArray>
		<DataArray type="Float32" Name="rhs_rho" format="ascii">
		  1.00000000e-15  1.00000000e-15  1.00000000e-15
		</DataArray>
		<DataArray type="Float32" Name="rhs_velocity" NumberOfComponents="3" format="ascii">
		  1.00000000e-15  1.00000000e-15 0
		  1.00000000e-15  1.00000000e-15 0
		  1.00000000e-15  1.00000000e-15 0
		</DataArray>
		<DataArray type="Float32" Name="rhs_E" format="ascii">
		  1.00000000e-15  1.00000000e-15  1.00000000e-15
		</DataArray>
	</PointData>
</Piece>


<Piece NumberOfPoints="3" NumberOfCells="1">
	<Points>
		<DataArray type="Float32" NumberOfComponents="3" format="ascii">
		  7.29795193e-01  1.00000000e-15 0
		  6.61768669e-01 -4.90714759e-02 0
		  8.09729073e-01 -7.91170241e-02 0
		</DataArray>
	</Points>
	<Cells>
		<DataArray type="Int32" Name="connectivity" format="ascii">
		   0   1   2
		</DataArray>
		<DataArray type="Int32" Name="offsets" format="ascii">
		   3
		</DataArray>
		<DataArray type="UInt8" Name="types" format="ascii">
		   5
		</DataArray>
	</Cells>
	<PointData Scalars="Scalars" Vectors="Vectors">
		<DataArray type="Int32" Name="index" format="ascii">
		   4   4   4
		</DataArray>
		<DataArray type="Int32" Name="p_ref" format="ascii">
		   1   1   1
		</DataArray>
		<DataArray type="Int32" Name="ml" format="ascii">
		   0   0   0
		</DataArray>
		<DataArray type="Float32" Name="$\rho$" format="ascii">
		  9.99823094e-01  1.00043832e+00  1.00026701e+00
		</DataArray>
		<DataArray type="Float32" Name="$\mathbf{v}$" NumberOfComponents="3" format="ascii">
		  1.01229567e-01 -2.80131942e-03 0
		  1.11877630e-01 -3.03358899e-03 0
		  1.15396023e-01 -2.63267349e-03 0
		</DataArray>
		<DataArray type="Float32" Name="$\mathit{p}$" format="ascii">
		  1.00027515e+00  1.00071712e+00  1.00039122e+00
		</DataArray>
		<DataArray type="Float32" Name="$\mathit{s}$" format="ascii">
		  5.22802082e-04  1.03349917e-04  1.73735347e-05
		</DataArray>
		<DataArray type="Float32" Name="mach" format="ascii">
		  8.55680094e-02  9.45754316e-02  9.75467618e-02
		</DataArray>
		<DataArray type="Float32" Name="rhs_rho" format="ascii">
		  1.00000000e-15  1.00000000e-15  1.00000000e-15
		</DataArray>
		<DataArray type="Float32" Name="rhs_velocity" NumberOfComponents="3" format="ascii">
		  1.00000000e-15  1.00000000e-15 0
		  1.00000000e-15  1.00000000e-15 0
		  1.00000000e-15  1.00000000e-15 0
		</DataArray>
		<DataArray type="Float32" Name="rhs_E" format="ascii">
		  1.00000000e-15  1.00000000e-15  1.00000000e-15
		</DataArray>
	</PointData>
</Piece>


<Piece NumberOfPoints="3" NumberOfCells="1">
	<Points>
		<DataArray type="Float32" NumberOfComponents="3" format="ascii">
		  8.09729073e-01 -7.91170241e-02 0
		  8.80206574e-01 -1.21035782e-15 0
		  7.29795193e-01  1.00000000e-15 0
		</DataArray>
	</Points>
	<Cells>
		<DataArray type="Int32" Name="connectivity" format="ascii">
		   0   1   2
		</DataArray>
		<DataArray type="Int32" Name="offsets" format="ascii">
		   3
		</DataArray>
		<DataArray type="UInt8" Name="types" format="ascii">
		   5
		</DataArray>
	</Cells>
	<PointData Scalars="Scalars" Vectors="Vectors">
		<DataArray type="Int32" Name="index" format="ascii">
		   5   5   5
		</DataArray>
		<DataArray type="Int32" Name="p_ref" format="ascii">
		   1   1   1
		</DataArray>
		<DataArray type="Int32" Name="ml" format="ascii">
		   0   0   0
		</DataArray>
		<DataArray type="Float32" Name="$\rho$" format="ascii">
		  1.00036231e+00  9.99762296e-01  9.99934021e-01
		</DataArray>
		<DataArray type="Float32" Name="$\mathbf{v}$" NumberOfComponents="3" format="ascii">
		  1.15300450e-01 -2.36784132e-03 0
		  1.04567525e-01 -2.62446686e-03 0
		  1.01574201e-01 -3.31785145e-03 0
		</DataArray>
		<DataArray type="Float32" Name="$\mathit{p}$" format="ascii">
		  1.00051200e+00  1.00015712e+00  1.00043470e+00
		</DataArray>
		<DataArray type="Float32" Name="$\mathit{s}$" format="ascii">
		  4.73734934e-06  4.89931576e-04  5.26981188e-04
		</DataArray>
		<DataArray type="Float32" Name="mach" format="ascii">
		  9.74599199e-02  8.83860681e-02  8.58701576e-02
		</DataArray>
		<DataArray type="Float32" Name="rhs_rho" format="ascii">
		  1.00000000e-15  1.00000000e-15  1.00000000e-15
		</DataArray>
		<DataArray type="Float32" Name="rhs_velocity" NumberOfComponents="3" format="ascii">
		  1.00000000e-15  1.00000000e-15 0
		  1.00000000e-15  1.00000000e-15 0
		  1.00000000e-15  1.00000000e-15 0
		</DataArray>
		<DataArray type="Float32" Name="rhs_E" format="ascii">
		  1.00000000e-15  1.00000000e-15  1.00000000e-15
		</DataArray>
	</PointData>
</Piece>


<Piece NumberOfPoints="3" NumberOfCells="1">
	<Points>
		<DataArray type="Float32" NumberOfComponents="3" format="ascii">
		  8.80206574e-01 -1.19684358e-15 0
		  8.09729073e-01 -7.91170241e-02 0
		  1.06070023e+00 -1.78876772e-15 0
		</DataArray>
	</Points>
	<Cells>
		<DataArray type="Int32" Name="connectivity" format="ascii">
		   0   1   2
		</DataArray>
		<DataArray type="Int32" Name="offsets" format="ascii">
		   3
		</DataArray>
		<DataArray type="UInt8" Name="types" format="ascii">
		   5
		</DataArray>
	</Cells>
	<PointData Scalars="Scalars" Vectors="Vectors">
		<DataArray type="Int32" Name="index" format="ascii">
		   6   6   6
		</DataArray>
		<DataArray type="Int32" Name="p_ref" format="ascii">
		   1   1   1
		</DataArray>
		<DataArray type="Int32" Name="ml" format="ascii">
		   0   0   0
		</DataArray>
		<DataArray type="Float32" Name="$\rho$" format="ascii">
		  9.99821785e-01  1.00040668e+00  9.99700193e-01
		</DataArray>
		<DataArray type="Float32" Name="$\mathbf{v}$" NumberOfComponents="3" format="ascii">
		  1.04368209e-01 -2.64313414e-03 0
		  1.15667230e-01 -2.32799051e-03 0
		  1.06956975e-01 -2.08926050e-03 0
		</DataArray>
		<DataArray type="Float32" Name="$\mathit{p}$" format="ascii">
		  1.00025033e+00  1.00054736e+00  1.00004065e+00
		</DataArray>
		<DataArray type="Float32" Name="$\mathit{s}$" format="ascii">
		  4.99825434e-04 -2.20325560e-05  4.60442536e-04
		</DataArray>
		<DataArray type="Float32" Name="mach" format="ascii">
		  8.82166134e-02  9.77695756e-02  9.03969955e-02
		</DataArray>
		<DataArray type="Float32" Name="rhs_rho" format="ascii">
		  1.00000000e-15  1.00000000e-15  1.00000000e-15
		</DataArray>
		<DataArray type="Float32" Name="rhs_velocity" NumberOfComponents="3" format="ascii">
		  1.00000000e-15  1.00000000e-15 0
		  1.00000000e-15  1.00000000e-15 0
		  1.00000000e-15  1.00000000e-15 0
		</DataArray>
		<DataArray type="Float32" Name="rhs_E" format="ascii">
		  1.00000000e-15  1.00000000e-15  1.00000000e-15
		</DataArray>
	</PointData>
</Piece>


<Piece NumberOfPoints="3" NumberOfCells="1">
	<Points>
		<DataArray type="Float32" NumberOfComponents="3" format="ascii">
		  1.06070023e+00 -1.74811763e-15 0
		  8.09729073e-01 -7.91170241e-02 0
		  9.87281559e-01 -1.15171682e-01 0
		</DataArray>
	</Points>
	<Cells>
		<DataArray type="Int32" Name="connectivity" format="ascii">
		   0   1   2
		</DataArray>
		<DataArray type="Int32" Name="offsets" format="ascii">
		   3
		</DataArray>
		<DataArray type="UInt8" Name="types" format="ascii">
		   5
		</DataArray>
	</Cells>
	<PointData Scalars="Scalars" Vectors="Vectors">
		<DataArray type="Int32" Name="index" format="ascii">
		   7   7   7
		</DataArray>
		<DataArray type="Int32" Name="p_ref" format="ascii">
		   1   1   1
		</DataArray>
		<DataArray type="Int32" Name="ml" format="ascii">
		   0   0   0
		</DataArray>
		<DataArray type="Float32" Name="$\rho$" format="ascii">
		  9.99687506e-01  1.00036070e+00  1.00029454e+00
		</DataArray>
		<DataArray type="Float32" Name="$\mathbf{v}$" NumberOfComponents="3" format="ascii">
		  1.07498502e-01 -1.64593347e-03 0
		  1.15934480e-01 -2.50141276e-03 0
		  1.17564908e-01 -2.18179253e-03 0
		</DataArray>
		<DataArray type="Float32" Name="$\mathit{p}$" format="ascii">
		  1.00001950e+00  1.00046636e+00  1.00031430e+00
		</DataArray>
		<DataArray type="Float32" Name="$\mathit{s}$" format="ascii">
		  4.57063895e-04 -3.86433599e-05 -9.80427425e-05
		</DataArray>
		<DataArray type="Float32" Name="mach" format="ascii">
		  9.08483813e-02  9.80001477e-02  9.93766092e-02
		</DataArray>
		<DataArray type="Float32" Name="rhs_rho" format="ascii">
		  1.00000000e-15  1.00000000e-15  1.00000000e-15
		</DataArray>
		<DataArray type="Float32" Name="rhs_velocity" NumberOfComponents="3" format="ascii">
		  1.00000000e-15  1.00000000e-15 0
		  1.00000000e-15  1.00000000e-15 0
		  1.00000000e-15  1.00000000e-15 0
		</DataArray>
		<DataArray type="Float32" Name="rhs_E" format="ascii">
		  1.00000000e-15  1.00000000e-15  1.00000000e-15
		</DataArray>
	</PointData>
</Piece>


<Piece NumberOfPoints="3" NumberOfCells="1">
	<Points>
		<DataArray type="Float32" NumberOfComponents="3" format="ascii">
		  1.06070023e+00 -1.73172109e-15 0
		  9.87281559e-01 -1.15171682e-01 0
		  1.20034454e+00 -1.58437272e-01 0
		</DataArray>
	</Points>
	<Cells>
		<DataArray type="Int32" Name="connectivity" format="ascii">
		   0   1   2
		</DataArray>
		<DataArray type="Int32" Name="offsets" format="ascii">
		   3
		</DataArray>
		<DataArray type="UInt8" Name="types" format="ascii">
		   5
		</DataArray>
	</Cells>
	<PointData Scalars="Scalars" Vectors="Vectors">
		<DataArray type="Int32" Name="index" format="ascii">
		   8   8   8
		</DataArray>
		<DataArray type="Int32" Name="p_ref" format="ascii">
		   1   1   1
		</DataArray>
		<DataArray type="Int32" Name="ml" format="ascii">
		   0   0   0
		</DataArray>
		<DataArray type="Float32" Name="$\rho$" format="ascii">
		  9.99727773e-01  1.00031045e+00  1.00024353e+00
		</DataArray>
		<DataArray type="Float32" Name="$\mathbf{v}$" NumberOfComponents="3" format="ascii">
		  1.07356233e-01 -1.54026437e-03 0
		  1.17687923e-01 -2.12018302e-03 0
		  1.19060899e-01 -2.00253952e-03 0
		</DataArray>
		<DataArray type="Float32" Name="$\mathit{p}$" format="ascii">
		  1.00004354e+00  1.00034588e+00  1.00022563e+00
		</DataArray>
		<DataArray type="Float32" Name="$\mathit{s}$" format="ascii">
		  4.24708577e-04 -8.87406562e-05 -1.15290575e-04
		</DataArray>
		<DataArray type="Float32" Name="mach" format="ascii">
		  9.07275882e-02  9.94788265e-02  1.00639958e-01
		</DataArray>
		<DataArray type="Float32" Name="rhs_rho" format="ascii">
		  1.00000000e-15  1.00000000e-15  1.00000000e-15
		</DataArray>
		<DataArray type="Float32" Name="rhs_velocity" NumberOfComponents="3" format="ascii">
		  1.00000000e-15  1.00000000e-15 0
		  1.00000000e-15  1.00000000e-15 0
		  1.00000000e-15  1.00000000e-15 0
		</DataArray>
		<DataArray type="Float32" Name="rhs_E" format="ascii">
		  1.00000000e-15  1.00000000e-15  1.00000000e-15
		</DataArray>
	</PointData>
</Piece>


<Piece NumberOfPoints="3" NumberOfCells="1">
	<Points>
		<DataArray type="Float32" NumberOfComponents="3" format="ascii">
		  1.20034454e+00 -1.58437272e-01 0
		  1.27729262e+00 -2.48517722e-15 0
		  1.06070023e+00 -1.78814973e-15 0
		</DataArray>
	</Points>
	<Cells>
		<DataArray type="Int32" Name="connectivity" format="ascii">
		   0   1   2
		</DataArray>
		<DataArray type="Int32" Name="offsets" format="ascii">
		   3
		</DataArray>
		<DataArray type="UInt8" Name="types" format="ascii">
		   5
		</DataArray>
	</Cells>
	<PointData Scalars="Scalars" Vectors="Vectors">
		<DataArray type="Int32" Name="index" format="ascii">
		   9   9   9
		</DataArray>
		<DataArray type="Int32" Name="p_ref" format="ascii">
		   1   1   1
		</DataArray>
		<DataArray type="Int32" Name="ml" format="ascii">
		   0   0   0
		</DataArray>
		<DataArray type="Float32" Name="$\rho$" format="ascii">
		  1.00029124e+00  9.99733161e-01  9.99818595e-01
		</DataArray>
		<DataArray type="Float32" Name="$\mathbf{v}$" NumberOfComponents="3" format="ascii">
		  1.18964586e-01 -1.64112701e-03 0
		  1.09147318e-01 -1.75222678e-03 0
		  1.07695459e-01 -2.13361313e-03 0
		</DataArray>
		<DataArray type="Float32" Name="$\mathit{p}$" format="ascii">
		  1.00028117e+00  1.00001897e+00  1.00017465e+00
		</DataArray>
		<DataArray type="Float32" Name="$\mathit{s}$" format="ascii">
		 -1.26554469e-04  3.92598899e-04  4.28624564e-04
		</DataArray>
		<DataArray type="Float32" Name="mach" format="ascii">
		  1.00553499e-01  9.22450216e-02  9.10209301e-02
		</DataArray>
		<DataArray type="Float32" Name="rhs_rho" format="ascii">
		  1.00000000e-15  1.00000000e-15  1.00000000e-15
		</DataArray>
		<DataArray type="Float32" Name="rhs_velocity" NumberOfComponents="3" format="ascii">
		  1.00000000e-15  1.00000000e-15 0
		  1.00000000e-15  1.00000000e-15 0
		  1.00000000e-15  1.00000000e-15 0
		</DataArray>
		<DataArray type="Float32" Name="rhs_E" format="ascii">
		  1.00000000e-15  1.00000000e-15  1.00000000e-15
		</DataArray>
	</PointData>
</Piece>


<Piece NumberOfPoints="3" NumberOfCells="1">
	<Points>
		<DataArray type="Float32" NumberOfComponents="3" format="ascii">
		  1.27729262e+00 -2.45861854e-15 0
		  1.20034454e+00 -1.58437272e-01 0
		  1.53720347e+00 -3.31745096e-15 0
		</DataArray>
	</Points>
	<Cells>
		<DataArray type="Int32" Name="connectivity" format="ascii">
		   0   1   2
		</DataArray>
		<DataArray type="Int32" Name="offsets" format="ascii">
		   3
		</DataArray>
		<DataArray type="UInt8" Name="types" format="ascii">
		   5
		</DataArray>
	</Cells>
	<PointData Scalars="Scalars" Vectors="Vectors">
		<DataArray type="Int32" Name="index" format="ascii">
		  10  10  10
		</DataArray>
		<DataArray type="Int32" Name="p_ref" format="ascii">
		   1   1   1
		</DataArray>
		<DataArray type="Int32" Name="ml" format="ascii">
		   0   0   0
		</DataArray>
		<DataArray type="Float32" Name="$\rho$" format="ascii">
		  9.99763471e-01  1.00033641e+00  9.99708725e-01
		</DataArray>
		<DataArray type="Float32" Name="$\mathbf{v}$" NumberOfComponents="3" format="ascii">
		  1.09006579e-01 -1.73826460e-03 0
		  1.19285310e-01 -1.47232096e-03 0
		  1.10556685e-01 -1.45576763e-03 0
		</DataArray>
		<DataArray type="Float32" Name="$\mathit{p}$" format="ascii">
		  1.00006962e+00  1.00032223e+00  9.99956619e-01
		</DataArray>
		<DataArray type="Float32" Name="$\mathit{s}$" format="ascii">
		  4.00798677e-04 -1.48715992e-04  3.64462240e-04
		</DataArray>
		<DataArray type="Float32" Name="mach" format="ascii">
		  9.21249826e-02  1.00822881e-01  9.34339690e-02
		</DataArray>
		<DataArray type="Float32" Name="rhs_rho" format="ascii">
		  1.00000000e-15  1.00000000e-15  1.00000000e-15
		</DataArray>
		<DataArray type="Float32" Name="rhs_velocity" NumberOfComponents="3" format="ascii">
		  1.00000000e-15  1.00000000e-15 0
		  1.00000000e-15  1.00000000e-15 0
		  1.00000000e-15  1.00000000e-15 0
		</DataArray>
		<DataArray type="Float32" Name="rhs_E" format="ascii">
		  1.00000000e-15  1.00000000e-15  1.00000000e-15
		</DataArray>
	</PointData>
</Piece>


<Piece NumberOfPoints="3" NumberOfCells="1">
	<Points>
		<DataArray type="Float32" NumberOfComponents="3" format="ascii">
		  1.53720347e+00 -3.24118326e-15 0
		  1.20034454e+00 -1.58437272e-01 0
		  1.45602010e+00 -2.10355976e-01 0
		</DataArray>
	</Points>
	<Cells>
		<DataArray type="Int32" Name="connectivity" format="ascii">
		   0   1   2
		</DataArray>
		<DataArray type="Int32" Name="offsets" format="ascii">
		   3
		</DataArray>
		<DataArray type="UInt8" Name="types" format="ascii">
		   5
		</DataArray>
	</Cells>
	<PointData Scalars="Scalars" Vectors="Vectors">
		<DataArray type="Int32" Name="index" format="ascii">
		  11  11  11
		</DataArray>
		<DataArray type="Int32" Name="p_ref" format="ascii">
		   1   1   1
		</DataArray>
		<DataArray type="Int32" Name="ml" format="ascii">
		   0   0   0
		</DataArray>
		<DataArray type="Float32" Name="$\rho$" format="ascii">
		  9.99737105e-01  1.00025466e+00  1.00022511e+00
		</DataArray>
		<DataArray type="Float32" Name="$\mathbf{v}$" NumberOfComponents="3" format="ascii">
		  1.11423434e-01 -8.16863273e-04 0
		  1.18878019e-01 -1.83236373e-03 0
		  1.19183259e-01 -1.64975609e-03 0
		</DataArray>
		<DataArray type="Float32" Name="$\mathit{p}$" format="ascii">
		  9.99957435e-01  1.00023114e+00  1.00019311e+00
		</DataArray>
		<DataArray type="Float32" Name="$\mathit{s}$" format="ascii">
		  3.25535658e-04 -1.25367232e-04 -1.22027664e-04
		</DataArray>
		<DataArray type="Float32" Name="mach" format="ascii">
		  9.41621447e-02  1.00483380e-01  1.00739499e-01
		</DataArray>
		<DataArray type="Float32" Name="rhs_rho" format="ascii">
		  1.00000000e-15  1.00000000e-15  1.00000000e-15
		</DataArray>
		<DataArray type="Float32" Name="rhs_velocity" NumberOfComponents="3" format="ascii">
		  1.00000000e-15  1.00000000e-15 0
		  1.00000000e-15  1.00000000e-15 0
		  1.00000000e-15  1.00000000e-15 0
		</DataArray>
		<DataArray type="Float32" Name="rhs_E" format="ascii">
		  1.00000000e-15  1.00000000e-15  1.00000000e-15
		</DataArray>
	</PointData>
</Piece>


<Piece NumberOfPoints="3" NumberOfCells="1">
	<Points>
		<DataArray type="Float32" NumberOfComponents="3" format="ascii">
		  1.53720347e+00 -3.21757223e-15 0
		  1.45602010e+00 -2.10355976e-01 0
		  1.76283080e+00 -2.72658425e-01 0
		</DataArray>
	</Points>
	<Cells>
		<DataArray type="Int32" Name="connectivity" format="ascii">
		   0   1   2
		</DataArray>
		<DataArray type="Int32" Name="offsets" format="ascii">
		   3
		</DataArray>
		<DataArray type="UInt8" Name="types" format="ascii">
		   5
		</DataArray>
	</Cells>
	<PointData Scalars="Scalars" Vectors="Vectors">
		<DataArray type="Int32" Name="index" format="ascii">
		  12  12  12
		</DataArray>
		<DataArray type="Int32" Name="p_ref" format="ascii">
		   1   1   1
		</DataArray>
		<DataArray type="Int32" Name="ml" format="ascii">
		   0   0   0
		</DataArray>
		<DataArray type="Float32" Name="$\rho$" format="ascii">
		  9.99777163e-01  1.00020801e+00  1.00017226e+00
		</DataArray>
		<DataArray type="Float32" Name="$\mathbf{v}$" NumberOfComponents="3" format="ascii">
		  1.11307216e-01 -8.48346256e-04 0
		  1.19245782e-01 -1.61787932e-03 0
		  1.19663467e-01 -1.51981010e-03 0
		</DataArray>
		<DataArray type="Float32" Name="$\mathit{p}$" format="ascii">
		  9.99977797e-01  1.00018578e+00  1.00013701e+00
		</DataArray>
		<DataArray type="Float32" Name="$\mathit{s}$" format="ascii">
		  2.89803578e-04 -1.05412971e-04 -1.04149097e-04
		</DataArray>
		<DataArray type="Float32" Name="mach" format="ascii">
		  9.40650613e-02  1.00791475e-01  1.01144028e-01
		</DataArray>
		<DataArray type="Float32" Name="rhs_rho" format="ascii">
		  1.00000000e-15  1.00000000e-15  1.00000000e-15
		</DataArray>
		<DataArray type="Float32" Name="rhs_velocity" NumberOfComponents="3" format="ascii">
		  1.00000000e-15  1.00000000e-15 0
		  1.00000000e-15  1.00000000e-15 0
		  1.00000000e-15  1.00000000e-15 0
		</DataArray>
		<DataArray type="Float32" Name="rhs_E" format="ascii">
		  1.00000000e-15  1.00000000e-15  1.00000000e-15
		</DataArray>
	</PointData>
</Piece>


<Piece NumberOfPoints="3" NumberOfCells="1">
	<Points>
		<DataArray type="Float32" NumberOfComponents="3" format="ascii">
		  1.76283080e+00 -2.72658425e-01 0
		  1.84909651e+00 -4.32091710e-15 0
		  1.53720347e+00 -3.31922215e-15 0
		</DataArray>
	</Points>
	<Cells>
		<DataArray type="Int32" Name="connectivity" format="ascii">
		   0   1   2
		</DataArray>
		<DataArray type="Int32" Name="offsets" format="ascii">
		   3
		</DataArray>
		<DataArray type="UInt8" Name="types" format="ascii">
		   5
		</DataArray>
	</Cells>
	<PointData Scalars="Scalars" Vectors="Vectors">
		<DataArray type="Int32" Name="index" format="ascii">
		  13  13  13
		</DataArray>
		<DataArray type="Int32" Name="p_ref" format="ascii">
		   1   1   1
		</DataArray>
		<DataArray type="Int32" Name="ml" format="ascii">
		   0   0   0
		</DataArray>
		<DataArray type="Float32" Name="$\rho$" format="ascii">
		  1.00019305e+00  9.99792685e-01  9.99850508e-01
		</DataArray>
		<DataArray type="Float32" Name="$\mathbf{v}$" NumberOfComponents="3" format="ascii">
		  1.19541320e-01 -1.16375177e-03 0
		  1.12404711e-01 -1.19105676e-03 0
		  1.11635259e-01 -1.40707620e-03 0
		</DataArray>
		<DataArray type="Float32" Name="$\mathit{p}$" format="ascii">
		  1.00015792e+00  9.99979366e-01  1.00008405e+00
		</DataArray>
		<DataArray type="Float32" Name="$\mathit{s}$" format="ascii">
		 -1.12331108e-04  2.69635740e-04  2.93348356e-04
		</DataArray>
		<DataArray type="Float32" Name="mach" format="ascii">
		  1.01037417e-01  9.49957841e-02  9.43454905e-02
		</DataArray>
		<DataArray type="Float32" Name="rhs_rho" format="ascii">
		  1.00000000e-15  1.00000000e-15  1.00000000e-15
		</DataArray>
		<DataArray type="Float32" Name="rhs_velocity" NumberOfComponents="3" format="ascii">
		  1.00000000e-15  1.00000000e-15 0
		  1.00000000e-15  1.00000000e-15 0
		  1.00000000e-15  1.00000000e-15 0
		</DataArray>
		<DataArray type="Float32" Name="rhs_E" format="ascii">
		  1.00000000e-15  1.00000000e-15  1.00000000e-15
		</DataArray>
	</PointData>
</Piece>


<Piece NumberOfPoints="3" NumberOfCells="1">
	<Points>
		<DataArray type="Float32" NumberOfComponents="3" format="ascii">
		  1.84909651e+00 -4.27557444e-15 0
		  1.76283080e+00 -2.72658425e-01 0
		  2.22336817e+00 -5.51875495e-15 0
		</DataArray>
	</Points>
	<Cells>
		<DataArray type="Int32" Name="connectivity" format="ascii">
		   0   1   2
		</DataArray>
		<DataArray type="Int32" Name="offsets" format="ascii">
		   3
		</DataArray>
		<DataArray type="UInt8" Name="types" format="ascii">
		   5
		</DataArray>
	</Cells>
	<PointData Scalars="Scalars" Vectors="Vectors">
		<DataArray type="Int32" Name="index" format="ascii">
		  14  14  14
		</DataArray>
		<DataArray type="Int32" Name="p_ref" format="ascii">
		   1   1   1
		</DataArray>
		<DataArray type="Int32" Name="ml" format="ascii">
		   0   0   0
		</DataArray>
		<DataArray type="Float32" Name="$\rho$" format="ascii">
		  9.99811636e-01  1.00023097e+00  9.99781442e-01
		</DataArray>
		<DataArray type="Float32" Name="$\mathbf{v}$" NumberOfComponents="3" format="ascii">
		  1.12303944e-01 -1.17766315e-03 0
		  1.19763603e-01 -9.37552064e-04 0
		  1.13274673e-01 -1.08527582e-03 0
		</DataArray>
		<DataArray type="Float32" Name="$\mathit{p}$" format="ascii">
		  1.00001162e+00  1.00019643e+00  9.99945055e-01
		</DataArray>
		<DataArray type="Float32" Name="$\mathit{s}$" format="ascii">
		  2.75350641e-04 -1.26905858e-04  2.51067959e-04
		</DataArray>