<?xml version="1.0"?>
<VTKFile type="UnstructuredGrid" version="0.1" byte_order="LittleEndian">
<UnstructuredGrid>

<Piece NumberOfPoints="6" NumberOfCells="4">
	<Points>
		<DataArray type="Float32" NumberOfComponents="3" format="ascii">
		  5.00000000e-01  1.00000000e-15 0
		  4.35718025e-01 -1.77072854e-03 0
		  3.74352866e-01 -5.39306639e-03 0
		  9.08046338e-01 -9.78457336e-02 0
		  8.20046605e-01 -1.93678565e-01 0
		  1.26574034e+00 -3.81964064e-01 0
		</DataArray>
	</Points>
	<Cells>
		<DataArray type="Int32" Name="connectivity" format="ascii">
		   0   1   3
		   1   2   4
		   3   4   5
		   1   3   4
		</DataArray>
		<DataArray type="Int32" Name="offsets" format="ascii">
		   3   6   9  12
		</DataArray>
		<DataArray type="UInt8" Name="types" format="ascii">
		   5   5   5   5
		</DataArray>
	</Cells>
	<PointData Scalars="Scalars" Vectors="Vectors">
		<DataArray type="Int32" Name="index" format="ascii">
		   0   0   0   0   0   0
		</DataArray>
		<DataArray type="Int32" Name="p_ref" format="ascii">
		   2   2   2   2   2   2
		</DataArray>
		<DataArray type="Int32" Name="ml" format="ascii">
		   0   0   0   0   0   0
		</DataArray>
		<DataArray type="Float32" Name="$\rho$" format="ascii">
		  1.00124598e+00  1.00145053e+00  1.00119631e+00  9.99601434e-01  9.99797422e-01  1.00103819e+00
		</DataArray>
		<DataArray type="Float32" Name="$\mathbf{v}$" NumberOfComponents="3" format="ascii">
		  7.90562587e-02 -7.90504684e-04 0
		  8.58206954e-02  2.40957937e-03 0
		  8.96877406e-02  5.41652011e-03 0
		  1.11467007e-01 -5.09153995e-03 0
		  1.10518621e-01 -2.47531318e-03 0
		  1.09111137e-01  1.72347621e-03 0
		</DataArray>
		<DataArray type="Float32" Name="$\mathit{p}$" format="ascii">
		  1.00284964e+00  1.00269373e+00  1.00228725e+00  9.99809497e-01  9.99965166e-01  1.00154369e+00
		</DataArray>
		<DataArray type="Float32" Name="$\mathit{s}$" format="ascii">
		  1.10230183e-03  6.60834779e-04  6.10803070e-04  3.67582237e-04  2.48803211e-04  8.97903654e-05
		</DataArray>
		<DataArray type="Float32" Name="mach" format="ascii">
		  6.67646277e-02  7.25153128e-02  7.58967448e-02  9.42952296e-02  9.34208707e-02  9.22039675e-02
		</DataArray>
		<DataArray type="Float32" Name="rhs_rho" format="ascii">
		  1.00000000e-15  1.00000000e-15  1.00000000e-15  1.00000000e-15  1.00000000e-15  1.00000000e-15
		</DataArray>
		<DataArray type="Float32" Name="rhs_velocity" NumberOfComponents="3" format="ascii">
		  1.00000000e-15  1.00000000e-15 0
		  1.00000000e-15  1.00000000e-15 0
		  1.00000000e-15  1.00000000e-15 0
		  1.00000000e-15  1.00000000e-15 0
		  1.00000000e-15  1.00000000e-15 0
		  1.00000000e-15  1.00000000e-15 0
		</DataArray>
		<DataArray type="Float32" Name="rhs_E" format="ascii">
		  1.00000000e-15  1.00000000e-15  1.00000000e-15  1.00000000e-15  1.12485287e-15  1.00000000e-15
		</DataArray>
	</PointData>
</Piece>


<Piece NumberOfPoints="6" NumberOfCells="4">
	<Points>
		<DataArray type="Float32" NumberOfComponents="3" format="ascii">
		  1.26574034e+00 -3.81964064e-01 0
		  1.38048314e+00 -1.93688104e-01 0
		  1.46041524e+00 -2.98986465e-15 0
		  9.08046338e-01 -9.78457336e-02 0
		  9.80207618e-01 -1.53084282e-15 0
		  5.00000000e-01  1.00000000e-15 0
		</DataArray>
	</Points>
	<Cells>
		<DataArray type="Int32" Name="connectivity" format="ascii">
		   0   1   3
		   1   2   4
		   3   4   5
		   1   3   4
		</DataArray>
		<DataArray type="Int32" Name="offsets" format="ascii">
		   3   6   9  12
		</DataArray>
		<DataArray type="UInt8" Name="types" format="ascii">
		   5   5   5   5
		</DataArray>
	</Cells>
	<PointData Scalars="Scalars" Vectors="Vectors">
		<DataArray type="Int32" Name="index" format="ascii">
		   1   1   1   1   1   1
		</DataArray>
		<DataArray type="Int32" Name="p_ref" format="ascii">
		   2   2   2   2   2   2
		</DataArray>
		<DataArray type="Int32" Name="ml" format="ascii">
		   0   0   0   0   0   0
		</DataArray>
		<DataArray type="Float32" Name="$\rho$" format="ascii">
		  1.00016105e+00  1.00034125e+00  9.99595113e-01  9.99779685e-01  9.98938081e-01  1.00036685e+00
		</DataArray>
		<DataArray type="Float32" Name="$\mathbf{v}$" NumberOfComponents="3" format="ascii">
		  1.15231718e-01 -9.36854460e-05 0
		  1.12066334e-01 -1.17288105e-03 0
		  1.01444984e-01 -1.41440368e-03 0
		  1.10274788e-01 -4.38373653e-03 0
		  1.04056661e-01 -2.58899142e-03 0
		  1.12657147e-01 -5.52859353e-03 0
		</DataArray>
		<DataArray type="Float32" Name="$\mathit{p}$" format="ascii">
		  1.00042513e+00  1.00063793e+00  1.00049369e+00  1.00002854e+00  9.99753713e-01  1.00200023e+00
		</DataArray>
		<DataArray type="Float32" Name="$\mathit{s}$" format="ascii">
		  1.99584080e-04  1.60057451e-04  1.06052568e-03  3.37017060e-04  1.24115940e-03  1.48473851e-03
		</DataArray>
		<DataArray type="Float32" Name="mach" format="ascii">
		  9.73757546e-02  9.47044836e-02  8.57064791e-02  9.32612120e-02  8.79352542e-02  9.52495200e-02
		</DataArray>
		<DataArray type="Float32" Name="rhs_rho" format="ascii">
		  1.00000000e-15  1.00000000e-15  1.00000000e-15  1.00000000e-15  1.00000000e-15  1.00000000e-15
		</DataArray>
		<DataArray type="Float32" Name="rhs_velocity" NumberOfComponents="3" format="ascii">
		  1.00000000e-15  1.00000000e-15 0
		  1.00000000e-15  1.00000000e-15 0
		  1.00000000e-15  1.00000000e-15 0
		  1.00000000e-15  1.00000000e-15 0
		  1.00000000e-15  1.00000000e-15 0
		  1.00000000e-15  1.00000000e-15 0
		</DataArray>
		<DataArray type="Float32" Name="rhs_E" format="ascii">
		  1.00000000e-15  1.00000000e-15  1.00000000e-15  1.00000000e-15  1.00000000e-15  1.00000000e-15
		</DataArray>
	</PointData>
</Piece>


<Piece NumberOfPoints="6" NumberOfCells="4">
	<Points>
		<DataArray type="Float32" NumberOfComponents="3" format="ascii">
		  1.46041524e+00 -3.03556279e-15 0
		  1.38048314e+00 -1.93688104e-01 0
		  1.26574034e+00 -3.81964064e-01 0
		  2.01265399e+00 -4.84458717e-15 0
		  1.92378547e+00 -3.03906829e-01 0
		  2.56489275e+00 -6.48401557e-15 0
		</DataArray>
	</Points>
	<Cells>
		<DataArray type="Int32" Name="connectivity" format="ascii">
		   0   1   3
		   1   2   4
		   3   4   5
		   1   3   4
		</DataArray>
		<DataArray type="Int32" Name="offsets" format="ascii">
		   3   6   9  12
		</DataArray>
		<DataArray type="UInt8" Name="types" format="ascii">
		   5   5   5   5
		</DataArray>
	</Cells>
	<PointData Scalars="Scalars" Vectors="Vectors">
		<DataArray type="Int32" Name="index" format="ascii">
		   2   2   2   2   2   2
		</DataArray>
		<DataArray type="Int32" Name="p_ref" format="ascii">
		   2   2   2   2   2   2
		</DataArray>
		<DataArray type="Int32" Name="ml" format="ascii">
		   0   0   0   0   0   0
		</DataArray>
		<DataArray type="Float32" Name="$\rho$" format="ascii">
		  9.99175319e-01  1.00005455e+00  9.99493639e-01  9.99220362e-01  1.00003979e+00  9.99298744e-01
		</DataArray>
		<DataArray type="Float32" Name="$\mathbf{v}$" NumberOfComponents="3" format="ascii">
		  1.01664231e-01 -1.57000130e-03 0
		  1.12421864e-01 -1.51568847e-03 0
		  1.14501857e-01 -1.32072399e-03 0
		  1.03604503e-01 -1.18409375e-03 0
		  1.15478194e-01 -1.18656503e-03 0
		  1.04747759e-01 -7.02154337e-04 0
		</DataArray>
		<DataArray type="Float32" Name="$\mathit{p}$" format="ascii">
		  1.00000037e+00  1.00018271e+00  9.99775872e-01  9.99894821e-01  1.00010006e+00  9.99882072e-01
		</DataArray>
		<DataArray type="Float32" Name="$\mathit{s}$" format="ascii">
		  1.15539695e-03  1.06327389e-04  4.84931276e-04  9.86733367e-04  4.43417743e-05  8.64168058e-04
		</DataArray>
		<DataArray type="Float32" Name="mach" format="ascii">
		  8.58967456e-02  9.50163634e-02  9.67645080e-02  8.75379666e-02  9.75990983e-02  8.85041752e-02
		</DataArray>
		<DataArray type="Float32" Name="rhs_rho" format="ascii">
		  1.00000000e-15  1.00000000e-15  1.00000000e-15  1.00000000e-15  1.00000000e-15  1.00000000e-15
		</DataArray>
		<DataArray type="Float32" Name="rhs_velocity" NumberOfComponents="3" format="ascii">
		  1.00000000e-15  1.00000000e-15 0
		  1.00000000e-15  1.00000000e-15 0
		  1.00000000e-15  1.00000000e-15 0
		  1.00000000e-15  1.00000000e-15 0
		  1.00000000e-15  1.00000000e-15 0
		  1.00000000e-15  1.00000000e-15 0
		</DataArray>
		<DataArray type="Float32" Name="rhs_E" format="ascii">
		  1.00000000e-15  1.00000000e-15  1.34085370e-15  2.96253664e-15 -1.84482080e-15 -1.01365084e-15
		</DataArray>
	</PointData>
</Piece>


<Piece NumberOfPoints="6" NumberOfCells="4">
	<Points>
		<DataArray type="Float32" NumberOfComponents="3" format="ascii">
		  2.56489275e+00 -6.51504098e-15 0
		  1.92378547e+00 -3.03906829e-01 0
		  1.26574034e+00 -3.81964064e-01 0
		  2.46696302e+00 -4.14393084e-01 0
		  1.77828814e+00 -5.98492385e-01 0
		  2.29083593e+00 -8.15020706e-01 0
		</DataArray>
	</Points>
	<Cells>
		<DataArray type="Int32" Name="connectivity" format="ascii">
		   0   1   3
		   1   2   4
		   3   4   5
		   1   3   4
		</DataArray>
		<DataArray type="Int32" Name="offsets" format="ascii">
		   3   6   9  12
		</DataArray>
		<DataArray type="UInt8" Name="types" format="ascii">
		   5   5   5   5
		</DataArray>
	</Cells>
	<PointData Scalars="Scalars" Vectors="Vectors">
		<DataArray type="Int32" Name="index" format="ascii">
		   3   3   3   3   3   3
		</DataArray>
		<DataArray type="Int32" Name="p_ref" format="ascii">
		   2   2   2   2   2   2
		</DataArray>
		<DataArray type="Int32" Name="ml" format="ascii">
		   0   0   0   0   0   0
		</DataArray>
		<DataArray type="Float32" Name="$\rho$" format="ascii">
		  9.99176083e-01  1.00003905e+00  9.99959108e-01  1.00008361e+00  9.99942808e-01  9.99914236e-01
		</DataArray>
		<DataArray type="Float32" Name="$\mathbf{v}$" NumberOfComponents="3" format="ascii">
		  1.05239785e-01 -1.99737734e-04 0
		  1.15934408e-01 -1.13275865e-03 0
		  1.17579845e-01 -9.82179100e-04 0
		  1.17263984e-01 -1.00155483e-03 0
		  1.18360426e-01 -1.12628335e-03 0
		  1.18377526e-01 -9.72969952e-04 0
		</DataArray>
		<DataArray type="Float32" Name="$\mathit{p}$" format="ascii">
		  9.99629838e-01  1.00010847e+00  9.99986613e-01  1.00010433e+00  9.99939758e-01  9.99937354e-01
		</DataArray>
		<DataArray type="Float32" Name="$\mathit{s}$" format="ascii">
		  7.83729268e-04  5.37882102e-05  4.38626315e-05 -1.27245781e-05  1.98269125e-05  5.74277201e-05
		</DataArray>
		<DataArray type="Float32" Name="mach" format="ascii">
		  8.89238234e-02  9.79837349e-02  9.93752064e-02  9.91087429e-02  1.00037499e-01  1.00049492e-01
		</DataArray>
		<DataArray type="Float32" Name="rhs_rho" format="ascii">
		  1.00000000e-15  1.00000000e-15  1.00000000e-15  1.00000000e-15  1.00000000e-15  1.00000000e-15
		</DataArray>
		<DataArray type="Float32" Name="rhs_velocity" NumberOfComponents="3" format="ascii">
		  1.00000000e-15  1.00000000e-15 0
		  1.00000000e-15  1.00000000e-15 0
		  1.00000000e-15  1.00000000e-15 0
		  1.00000000e-15  1.00000000e-15 0
		  1.00000000e-15  1.00000000e-15 0
		  1.00000000e-15  1.00000000e-15 0
		</DataArray>
		<DataArray type="Float32" Name="rhs_E" format="ascii">
		  1.00000000e-15  1.00000000e-15 -1.24698904e-15  1.00000000e-15  1.00000000e-15  1.00000000e-15
		</DataArray>
	</PointData>
</Piece>


<Piece NumberOfPoints="6" NumberOfCells="4">
	<Points>
		<DataArray type="Float32" NumberOfComponents="3" format="ascii">
		  2.56489275e+00 -6.40779680e-15 0
		  2.46696302e+00 -4.14393084e-01 0
		  2.29083593e+00 -8.15020706e-01 0
		  3.09161720e+00 -5.41452275e-01 0
		  2.88026589e+00 -1.06402827e+00 0
		  3.46969585e+00 -1.31303584e+00 0
		</DataArray>
	</Points>
	<Cells>
		<DataArray type="Int32" Name="connectivity" format="ascii">
		   0   1   3
		   1   2   4
		   3   4   5
		   1   3   4
		</DataArray>
		<DataArray type="Int32" Name="offsets" format="ascii">
		   3   6   9  12
		</DataArray>
		<DataArray type="UInt8" Name="types" format="ascii">
		   5   5   5   5
		</DataArray>
	</Cells>
	<PointData Scalars="Scalars" Vectors="Vectors">
		<DataArray type="Int32" Name="index" format="ascii">
		   4   4   4   4   4   4
		</DataArray>
		<DataArray type="Int32" Name="p_ref" format="ascii">
		   2   2   2   2   2   2
		</DataArray>
		<DataArray type="Int32" Name="ml" format="ascii">
		   0   0   0   0   0   0
		</DataArray>
		<DataArray type="Float32" Name="$\rho$" format="ascii">
		  9.99226063e-01  1.00008382e+00  9.99898684e-01  1.00007785e+00  9.99869943e-01  9.99842621e-01
		</DataArray>
		<DataArray type="Float32" Name="$\mathbf{v}$" NumberOfComponents="3" format="ascii">
		  1.04736074e-01 -6.19045422e-05 0
		  1.17370647e-01 -9.33822311e-04 0
		  1.18274010e-01 -9.00220484e-04 0
		  1.18305913e-01 -1.06440673e-03 0
		  1.17707167e-01 -6.05111945e-04 0
		  1.17116030e-01 -1.38192120e-04 0
		</DataArray>
		<DataArray type="Float32" Name="$\mathit{p}$" format="ascii">
		  9.99644639e-01  1.00010214e+00  9.99909203e-01  1.00007917e+00  9.99901675e-01  9.99891764e-01
		</DataArray>
		<DataArray type="Float32" Name="$\mathit{s}$" format="ascii">
		  7.28506979e-04 -1.52058437e-05  5.10486024e-05 -2.98215557e-05  8.37613452e-05  1.12106080e-04
		</DataArray>
		<DataArray type="Float32" Name="mach" format="ascii">
		  8.84996197e-02  9.91985330e-02  9.99621523e-02  9.99907269e-02  9.94804492e-02  9.89787475e-02
		</DataArray>
		<DataArray type="Float32" Name="rhs_rho" format="ascii">
		  1.00000000e-15  1.00000000e-15  1.00000000e-15  1.00000000e-15  1.00000000e-15  1.00000000e-15
		</DataArray>
		<DataArray type="Float32" Name="rhs_velocity" NumberOfComponents="3" format="ascii">
		  1.00000000e-15  1.00000000e-15 0
		  1.00000000e-15  1.00000000e-15 0
		  1.00000000e-15  1.00000000e-15 0
		  1.00000000e-15  1.00000000e-15 0
		  1.00000000e-15  1.00000000e-15 0
		  1.00000000e-15  1.00000000e-15 0
		</DataArray>
		<DataArray type="Float32" Name="rhs_E" format="ascii">
		 -1.53831672e-15  1.00000000e-15  1.69033678e-15  1.00000000e-15 -1.97289740e-15  1.00885440e-15
		</DataArray>
	</PointData>
</Piece>


<Piece NumberOfPoints="6" NumberOfCells="4">
	<Points>
		<DataArray type="Float32" NumberOfComponents="3" format="ascii">
		  3.46969585e+00 -1.31303584e+00 0
		  3.71641486e+00 -6.68203808e-01 0
		  3.83504187e+00 -1.03750365e-14 0
		  3.09161720e+00 -5.41452275e-01 0
		  3.19996731e+00 -8.70298177e-15 0
		  2.56489275e+00 -6.34274110e-15 0
		</DataArray>
	</Points>
	<Cells>
		<DataArray type="Int32" Name="connectivity" format="ascii">
		   0   1   3
		   1   2   4
		   3   4   5
		   1   3   4
		</DataArray>
		<DataArray type="Int32" Name="offsets" format="ascii">
		   3   6   9  12
		</DataArray>
		<DataArray type="UInt8" Name="types" format="ascii">
		   5   5   5   5
		</DataArray>
	</Cells>
	<PointData Scalars="Scalars" Vectors="Vectors">
		<DataArray type="Int32" Name="index" format="ascii">
		   5   5   5   5   5   5
		</DataArray>
		<DataArray type="Int32" Name="p_ref" format="ascii">
		   2   2   2   2   2   2
		</DataArray>
		<DataArray type="Int32" Name="ml" format="ascii">
		   0   0   0   0   0   0
		</DataArray>
		<DataArray type="Float32" Name="$\rho$" format="ascii">
		  9.99638656e-01  1.00012350e+00  9.99476109e-01  1.00008887e+00  9.99400047e-01  9.99403128e-01
		</DataArray>
		<DataArray type="Float32" Name="$\mathbf{v}$" NumberOfComponents="3" format="ascii">
		  1.17012824e-01 -8.29320607e-04 0
		  1.18986729e-01 -7.13075231e-04 0
		  1.07263211e-01 -5.72133325e-04 0
		  1.18372006e-01 -9.59296393e-04 0
		  1.06276840e-01 -7.13395503e-04 0
		  1.04952613e-01 -8.91153496e-04 0
		</DataArray>
		<DataArray type="Float32" Name="$\mathit{p}$" format="ascii">
		  9.99658831e-01  1.00009782e+00  9.99893561e-01  1.00008234e+00  9.99841444e-01  9.99916907e-01
		</DataArray>
		<DataArray type="Float32" Name="$\mathit{s}$" format="ascii">
		  1.64746726e-04 -7.50753548e-05  6.27195597e-04 -4.20780119e-05  6.81617480e-04  7.52773164e-04
		</DataArray>
		<DataArray type="Float32" Name="mach" format="ascii">
		  9.88953721e-02  1.00565237e-01  9.06363230e-02  1.00046216e-01  8.98025178e-02  8.86815527e-02
		</DataArray>
		<DataArray type="Float32" Name="rhs_rho" format="ascii">
		  1.00000000e-15  1.00000000e-15  1.00000000e-15  1.00000000e-15  1.00000000e-15  1.00000000e-15
		</DataArray>
		<DataArray type="Float32" Name="rhs_velocity" NumberOfComponents="3" format="ascii">
		  1.00000000e-15  1.00000000e-15 0
		  1.00000000e-15  1.00000000e-15 0
		  1.00000000e-15  1.00000000e-15 0
		  1.00000000e-15  1.00000000e-15 0
		  1.00000000e-15  1.00000000e-15 0
		  1.00000000e-15  1.00000000e-15 0
		</DataArray>
		<DataArray type="Float32" Name="rhs_E" format="ascii">
		  1.00000000e-15  1.00000000e-15  1.31685206e-15  1.00000000e-15  1.00000000e-15  1.52345635e-15
		</DataArray>
	</PointData>
</Piece>


<Piece NumberOfPoints="6" NumberOfCells="4">
	<Points>
		<DataArray type="Float32" NumberOfComponents="3" format="ascii">
		  3.83504187e+00 -1.04947860e-14 0
		  3.71641486e+00 -6.68203808e-01 0
		  3.46969585e+00 -1.31303584e+00 0
		  4.56537762e+00 -1.30266470e-14 0
		  4.43493218e+00 -8.13968071e-01 0
		  5.29571337e+00 -1.49418845e-14 0
		</DataArray>
	</Points>
	<Cells>
		<DataArray type="Int32" Name="connectivity" format="ascii">
		   0   1   3
		   1   2   4
		   3   4   5
		   1   3   4
		</DataArray>
		<DataArray type="Int32" Name="offsets" format="ascii">
		   3   6   9  12
		</DataArray>
		<DataArray type="UInt8" Name="types" format="ascii">
		   5   5   5   5
		</DataArray>
	</Cells>
	<PointData Scalars="Scalars" Vectors="Vectors">
		<DataArray type="Int32" Name="index" format="ascii">
		   6   6   6   6   6   6
		</DataArray>
		<DataArray type="Int32" Name="p_ref" format="ascii">
		   2   2   2   2   2   2
		</DataArray>
		<DataArray type="Int32" Name="ml" format="ascii">
		   0   0   0   0   0   0
		</DataArray>
		<DataArray type="Float32" Name="$\rho$" format="ascii">
		  9.99417389e-01  1.00012674e+00  9.99520618e-01  9.99446698e-01  1.00014221e+00  9.99429774e-01
		</DataArray>
		<DataArray type="Float32" Name="$\mathbf{v}$" NumberOfComponents="3" format="ascii">
		  1.07057110e-01 -5.38648207e-04 0
		  1.19067347e-01 -8.79198462e-04 0
		  1.16050008e-01 -1.50090467e-03 0
		  1.08376447e-01 -4.49233465e-04 0
		  1.19468220e-01 -3.18138090e-04 0
		  1.09846132e-01 -5.01396220e-04 0
		</DataArray>
		<DataArray type="Float32" Name="$\mathit{p}$" format="ascii">
		  9.99844998e-01  1.00008423e+00  9.99587703e-01  9.99825717e-01  1.00008812e+00  9.99752730e-01
		</DataArray>
		<DataArray type="Float32" Name="$\mathit{s}$" format="ascii">
		  6.60879594e-04 -9.32005007e-05  2.58913729e-04  6.00539646e-04 -1.10959606e-04  5.51243451e-04
		</DataArray>
		<DataArray type="Float32" Name="mach" format="ascii">
		  9.04615667e-02  1.00635157e-01  9.80850687e-02  9.15782394e-02  1.00972163e-01  9.28228970e-02
		</DataArray>
		<DataArray type="Float32" Name="rhs_rho" format="ascii">
		  1.00000000e-15  1.00000000e-15  1.00000000e-15  1.00000000e-15  1.00000000e-15  1.00000000e-15
		</DataArray>
		<DataArray type="Float32" Name="rhs_velocity" NumberOfComponents="3" format="ascii">
		  1.00000000e-15  1.00000000e-15 0
		  1.00000000e-15  1.00000000e-15 0
		  1.00000000e-15  1.00000000e-15 0
		  1.00000000e-15  1.00000000e-15 0
		  1.00000000e-15  1.00000000e-15 0
		  1.00000000e-15  1.00000000e-15 0
		</DataArray>
		<DataArray type="Float32" Name="rhs_E" format="ascii">
		 -2.48958185e-15  1.00000000e-15  1.00000000e-15  1.72918595e-15 -2.04627383e-15 -2.71699917e-15
		</DataArray>
	</PointData>
</Piece>


<Piece NumberOfPoints="6" NumberOfCells="4">
	<Points>
		<DataArray type="Float32" NumberOfComponents="3" format="ascii">
		  5.29571337e+00 -1.50485387e-14 0
		  4.43493218e+00 -8.13968071e-01 0
		  3.46969585e+00 -1.31303584e+00 0
		  5.15328449e+00 -9.60086141e-01 0
		  4.14754030e+00 -1.59939454e+00 0
		  4.82538475e+00 -1.88575324e+00 0
		</DataArray>
	</Points>
	<Cells>
		<DataArray type="Int32" Name="connectivity" format="ascii">
		   0   1   3
		   1   2   4
		   3   4   5
		   1   3   4
		</DataArray>
		<DataArray type="Int32" Name="offsets" format="ascii">
		   3   6   9  12
		</DataArray>
		<DataArray type="UInt8" Name="types" format="ascii">
		   5   5   5   5
		</DataArray>
	</Cells>
	<PointData Scalars="Scalars" Vectors="Vectors">
		<DataArray type="Int32" Name="index" format="ascii">
		   7   7   7   7   7   7
		</DataArray>
		<DataArray type="Int32" Name="p_ref" format="ascii">
		   2   2   2   2   2   2
		</DataArray>
		<DataArray type="Int32" Name="ml" format="ascii">
		   0   0   0   0   0   0
		</DataArray>
		<DataArray type="Float32" Name="$\rho$" format="ascii">
		  9.99481924e-01  1.00010319e+00  9.99792957e-01  1.00010302e+00  9.99809168e-01  9.99834265e-01
		</DataArray>
		<DataArray type="Float32" Name="$\mathbf{v}$" NumberOfComponents="3" format="ascii">
		  1.11124721e-01  1.08030050e-03 0
		  1.19171395e-01 -6.17832580e-04 0
		  1.16966905e-01 -5.35709992e-04 0
		  1.18777362e-01 -7.82865927e-04 0
		  1.16822946e-01 -1.33386588e-04 0
		  1.16989606e-01  3.54458218e-05 0
		</DataArray>
		<DataArray type="Float32" Name="$\mathit{p}$" format="ascii">
		  9.99720448e-01  1.00006315e+00  9.99901975e-01  1.00009002e+00  9.99882097e-01  9.99887353e-01
		</DataArray>
		<DataArray type="Float32" Name="$\mathit{s}$" format="ascii">
		  4.45904138e-04 -8.13137759e-05  1.91861343e-04 -5.42090480e-05  1.49280379e-04  1.19395003e-04
		</DataArray>
		<DataArray type="Float32" Name="mach" format="ascii">
		  9.39107637e-02  1.00721582e-01  9.88507248e-02  1.00388026e-01  9.87298732e-02  9.88716428e-02
		</DataArray>
		<DataArray type="Float32" Name="rhs_rho" format="ascii">
		  1.00000000e-15  1.00000000e-15  1.00000000e-15  1.00000000e-15  1.00000000e-15  1.00000000e-15
		</DataArray>
		<DataArray type="Float32" Name="rhs_velocity" NumberOfComponents="3" format="ascii">
		  1.00000000e-15  1.00000000e-15 0
		 -1.52968697e-15  1.00000000e-15 0
		  1.00000000e-15  1.00000000e-15 0
		  1.66043408e-15  1.00000000e-15 0
		  1.00000000e-15  1.00000000e-15 0
		  1.00000000e-15  1.00000000e-15 0
		</DataArray>
		<DataArray type="Float32" Name="rhs_E" format="ascii">
		  1.00000000e-15  2.47990212e-15 -1.87389307e-15 -2.12401827e-15  1.00000000e-15  1.00000000e-15
		</DataArray>
	</PointData>
</Piece>


<Piece NumberOfPoints="6" NumberOfCells="4">
	<Points>
		<DataArray type="Float32" NumberOfComponents="3" format="ascii">
		  5.29571337e+00 -1.49067082e-14 0
		  5.15328449e+00 -9.60086141e-01 0
		  4.82538475e+00 -1.88575324e+00 0
		  5.97938964e+00 -1.12812192e+00 0
		  5.60490587e+00 -2.21506575e+00 0
		  6.38442699e+00 -2.54437826e+00 0
		</DataArray>
	</Points>
	<Cells>
		<DataArray type="Int32" Name="connectivity" format="ascii">
		   0   1   3
		   1   2   4
		   3   4   5
		   1   3   4
		</DataArray>
		<DataArray type="Int32" Name="offsets" format="ascii">
		   3   6   9  12
		</DataArray>
		<DataArray type="UInt8" Name="types" format="ascii">
		   5   5   5   5
		</DataArray>
	</Cells>
	<PointData Scalars="Scalars" Vectors="Vectors">
		<DataArray type="Int32" Name="index" format="ascii">
		   8   8   8   8   8   8
		</DataArray>
		<DataArray type="Int32" Name="p_ref" format="ascii">
		   2   2   2   2   2   2
		</DataArray>
		<DataArray type="Int32" Name="ml" format="ascii">
		   0   0   0   0   0   0
		</DataArray>
		<DataArray type="Float32" Name="$\rho$" format="ascii">
		  9.99530804e-01  1.00007698e+00  9.99858950e-01  1.00005662e+00  9.99871318e-01  9.99866829e-01
		</DataArray>
		<DataArray type="Float32" Name="$\mathbf{v}$" NumberOfComponents="3" format="ascii">
		  1.10838267e-01  9.86919869e-04 0
		  1.18856107e-01 -6.92660188e-04 0
		  1.16899995e-01  1.22318238e-05 0
		  1.18842090e-01 -7.79534782e-04 0
		  1.16959078e-01  1.01237511e-04 0
		  1.17196959e-01  3.39309776e-04 0
		</DataArray>
		<DataArray type="Float32" Name="$\mathit{p}$" format="ascii">
		  9.99733860e-01  1.00006232e+00  9.99903796e-01  1.00004479e+00  9.99912244e-01  9.99897904e-01
		</DataArray>
		<DataArray type="Float32" Name="$\mathit{s}$" format="ascii">
		  3.90852234e-04 -4.54485483e-05  1.01275493e-04 -3.44703633e-05  9.24064411e-05  8.43499831e-05
		</DataArray>
		<DataArray type="Float32" Name="mach" format="ascii">
		  9.36696324e-02  1.00454187e-01  9.87963128e-02  1.00442653e-01  9.88464764e-02  9.90483847e-02
		</DataArray>
		<DataArray type="Float32" Name="rhs_rho" format="ascii">
		  1.00000000e-15  1.00000000e-15  1.00000000e-15  1.00000000e-15  1.00000000e-15  1.00000000e-15
		</DataArray>
		<DataArray type="Float32" Name="rhs_velocity" NumberOfComponents="3" format="ascii">
		  1.00000000e-15  1.00000000e-15 0
		  1.00000000e-15  1.00000000e-15 0
		  1.00000000e-15  1.00000000e-15 0
		 -1.66376984e-15  1.00000000e-15 0
		  1.00000000e-15  1.00000000e-15 0
		  1.00000000e-15  1.00000000e-15 0
		</DataArray>
		<DataArray type="Float32" Name="rhs_E" format="ascii">
		  1.73725437e-15  1.39791151e-15  1.37992390e-15  1.00000000e-15 -1.37389957e-15  1.00000000e-15
		</DataArray>
	</PointData>
</Piece>


<Piece NumberOfPoints="6" NumberOfCells="4">
	<Points>
		<DataArray type="Float32" NumberOfComponents="3" format="ascii">
		  6.38442699e+00 -2.54437826e+00 0
		  6.80568455e+00 -1.29575082e+00 0
		  6.97548558e+00 -2.01419262e-14 0
		  5.97938964e+00 -1.12812192e+00 0
		  6.13559947e+00 -1.81881355e-14 0
		  5.29571337e+00 -1.48498249e-14 0
		</DataArray>
	</Points>
	<Cells>
		<DataArray type="Int32" Name="connectivity" format="ascii">
		   0   1   3
		   1   2   4
		   3   4   5
		   1   3   4
		</DataArray>
		<DataArray type="Int32" Name="offsets" format="ascii">
		   3   6   9  12
		</DataArray>
		<DataArray type="UInt8" Name="types" format="ascii">
		   5   5   5   5
		</DataArray>
	</Cells>
	<PointData Scalars="Scalars" Vectors="Vectors">
		<DataArray type="Int32" Name="index" format="ascii">
		   9   9   9   9   9   9
		</DataArray>
		<DataArray type="Int32" Name="p_ref" format="ascii">
		   2   2   2   2   2   2
		</DataArray>
		<DataArray type="Int32" Name="ml" format="ascii">
		   0   0   0   0   0   0
		</DataArray>
		<DataArray type="Float32" Name="$\rho$" format="ascii">
		  9.99794640e-01  1.00008813e+00  9.99705450e-01  1.00004912e+00  9.99652309e-01  9.99703043e-01
		</DataArray>
		<DataArray type="Float32" Name="$\mathbf{v}$" NumberOfComponents="3" format="ascii">
		  1.17226703e-01 -4.28346342e-04 0
		  1.18972417e-01 -4.17219045e-04 0
		  1.12061698e-01 -2.71466137e-04 0
		  1.18807659e-01 -5.37418699e-04 0
		  1.11765018e-01 -3.50325533e-04 0
		  1.11277949e-01 -2.52438462e-04 0
		</DataArray>
		<DataArray type="Float32" Name="$\mathit{p}$" format="ascii">
		  9.99821648e-01  1.00007222e+00  9.99942691e-01  1.00002861e+00  9.99889717e-01  9.99987488e-01
		</DataArray>
		<DataArray type="Float32" Name="$\mathit{s}$" format="ascii">
		  1.09165491e-04 -5.11554574e-05  3.55119687e-04 -4.01520831e-05  3.76562309e-04  4.03289534e-04
		</DataArray>
		<DataArray type="Float32" Name="mach" format="ascii">
		  9.90739700e-02  1.00551463e-01  9.46984627e-02  1.00412855e-01  9.44479298e-02  9.40338972e-02
		</DataArray>
		<DataArray type="Float32" Name="rhs_rho" format="ascii">
		  1.00000000e-15  1.00000000e-15  1.00000000e-15  1.00000000e-15  1.00000000e-15  1.00000000e-15
		</DataArray>
		<DataArray type="Float32" Name="rhs_velocity" NumberOfComponents="3" format="ascii">
		 -1.10733095e-15  1.00000000e-15 0
		  1.00000000e-15  1.00000000e-15 0
		  1.00000000e-15  1.00000000e-15 0
		  1.31976267e-15  1.00000000e-15 0
		  1.00000000e-15  1.00000000e-15 0
		 -1.54333230e-15  1.00000000e-15 0
		</DataArray>
		<DataArray type="Float32" Name="rhs_E" format="ascii">
		  1.00000000e-15 -3.40284140e-15  2.29149709e-15  1.69299869e-15  1.25717740e-15 -2.75781150e-15
		</DataArray>
	</PointData>
</Piece>


<Piece NumberOfPoints="6" NumberOfCells="4">
	<Points>
		<DataArray type="Float32" NumberOfComponents="3" format="ascii">
		  6.97548558e+00 -2.03596087e-14 0
		  6.80568455e+00 -1.29575082e+00 0
		  6.38442699e+00 -2.54437826e+00 0
		  7.94135461e+00 -2.38474211e-14 0
		  7.75592370e+00 -1.48852406e+00 0
		  8.90722363e+00 -2.61274162e-14 0
		</DataArray>
	</Points>
	<Cells>
		<DataArray type="Int32" Name="connectivity" format="ascii">
		   0   1   3
		   1   2   4
		   3   4   5
		   1   3   4
		</DataArray>
		<DataArray type="Int32" Name="offsets" format="ascii">
		   3   6   9  12
		</DataArray>
		<DataArray type="UInt8" Name="types" format="ascii">
		   5   5   5   5
		</DataArray>
	</Cells>
	<PointData Scalars="Scalars" Vectors="Vectors">
		<DataArray type="Int32" Name="index" format="ascii">
		  10  10  10  10  10  10
		</DataArray>
		<DataArray type="Int32" Name="p_ref" format="ascii">
		   2   2   2   2   2   2
		</DataArray>
		<DataArray type="Int32" Name="ml" format="ascii">
		   0   0   0   0   0   0
		</DataArray>
		<DataArray type="Float32" Name="$\rho$" format="ascii">
		  9.99664139e-01  1.00007795e+00  9.99726832e-01  9.99671574e-01  1.00008333e+00  9.99654617e-01
		</DataArray>
		<DataArray type="Float32" Name="$\mathbf{v}$" NumberOfComponents="3" format="ascii">
		  1.11954328e-01 -2.85617987e-04 0
		  1.19039970e-01 -4.73014739e-04 0
		  1.16695678e-01 -1.04303463e-03 0
		  1.12623273e-01 -2.59182046e-04 0
		  1.19134270e-01 -1.09193419e-04 0
		  1.13411236e-01 -3.51661984e-04 0
		</DataArray>
		<DataArray type="Float32" Name="$\mathit{p}$" format="ascii">
		  9.99898570e-01  1.00005057e+00  9.99764646e-01  9.99884452e-01  1.00005083e+00  9.99839927e-01
		</DataArray>
		<DataArray type="Float32" Name="$\mathit{s}$" format="ascii">
		  3.68848602e-04 -5.85487261e-05  1.47106116e-04  3.44316615e-04 -6.58339483e-05  3.23534693e-04
		</DataArray>
		<DataArray type="Float32" Name="mach" format="ascii">
		  9.46078919e-02  1.00609308e-01  9.86279227e-02  9.51741575e-02  1.00688514e-01  9.58415666e-02
		</DataArray>
		<DataArray type="Float32" Name="rhs_rho" format="ascii">
		 -1.36982810e-15  1.47635227e-15  1.00000000e-15  1.00000000e-15 -1.84326971e-15  1.00000000e-15
		</DataArray>