<?xml version="1.0"?>
<VTKFile type="UnstructuredGrid" version="0.1" byte_order="LittleEndian">
<UnstructuredGrid>

<Piece NumberOfPoints="9" NumberOfCells="4">
	<Points>
		<DataArray type="Float32" NumberOfComponents="3" format="ascii">
		  5.00000000e-01  1.00000000e-15 0
		  4.35718025e-01 -7.02569214e-03 0
		  3.74352866e-01 -1.65732945e-02 0
		  9.80207618e-01 -1.61348423e-15 0
		  9.08100585e-01 -1.02854971e-01 0
		  8.20046605e-01 -2.04583469e-01 0
		  1.46041524e+00 -3.15652940e-15 0
		  1.38048314e+00 -1.98684250e-01 0
		  1.26574034e+00 -3.92593643e-01 0
		</DataArray>
	</Points>
	<Cells>
		<DataArray type="Int32" Name="connectivity" format="ascii">
		   0   1   4   3
		   1   2   5   4
		   3   4   7   6
		   4   5   8   7
		</DataArray>
		<DataArray type="Int32" Name="offsets" format="ascii">
		   4   8  12  16
		</DataArray>
		<DataArray type="UInt8" Name="types" format="ascii">
		   9   9   9   9
		</DataArray>
	</Cells>
	<PointData Scalars="Scalars" Vectors="Vectors">
		<DataArray type="Int32" Name="index" format="ascii">
		   0   0   0   0   0   0   0   0
		   0
		</DataArray>
		<DataArray type="Int32" Name="p_ref" format="ascii">
		   2   2   2   2   2   2   2   2
		   2
		</DataArray>
		<DataArray type="Int32" Name="ml" format="ascii">
		   0   0   0   0   0   0   0   0
		   0
		</DataArray>
		<DataArray type="Float32" Name="$\rho$" format="ascii">
		  1.00136633e+00  9.99890778e-01  1.00003926e+00  9.97728492e-01  9.98714667e-01  9.99473761e-01  9.99461367e-01  9.99936314e-01
		  1.00021997e+00
		</DataArray>
		<DataArray type="Float32" Name="$\mathbf{v}$" NumberOfComponents="3" format="ascii">
		  8.66598584e-02 -3.74666128e-04 0
		  6.63710566e-02  6.12483963e-03 0
		  6.70188239e-02  9.91292579e-03 0
		  7.82967481e-02 -3.90665282e-04 0
		  8.61786012e-02 -3.11882898e-04 0
		  9.90574747e-02  1.41862283e-03 0
		  6.97350239e-02  8.70976012e-05 0
		  9.89773280e-02 -1.32540440e-05 0
		  1.21008756e-01 -8.28738849e-05 0
		</DataArray>
		<DataArray type="Float32" Name="$\mathit{p}$" format="ascii">
		  1.00508308e+00  1.00186012e+00  1.00206566e+00  9.99456904e-01  9.99385580e-01  1.00010910e+00  1.00154781e+00  1.00059259e+00
		  1.00041221e+00
		</DataArray>
		<DataArray type="Float32" Name="$\mathit{s}$" format="ascii">
		  3.15864252e-03  2.01130986e-03  2.00857063e-03  2.64048547e-03  1.18601461e-03  8.46026466e-04  2.30090169e-03  6.81578537e-04
		  1.04210434e-04
		</DataArray>
		<DataArray type="Float32" Name="mach" format="ascii">
		  7.31060853e-02  5.62767271e-02  5.71995708e-02  6.61164099e-02  7.28102365e-02  8.37008319e-02  5.88754769e-02  8.36236732e-02
		  1.02261262e-01
		</DataArray>
		<DataArray type="Float32" Name="rhs_rho" format="ascii">
		  1.00000000e-15  1.00000000e-15  1.00000000e-15  1.00000000e-15  1.00000000e-15  1.00000000e-15  1.00000000e-15  1.00000000e-15
		  1.00000000e-15
		</DataArray>
		<DataArray type="Float32" Name="rhs_velocity" NumberOfComponents="3" format="ascii">
		  1.00000000e-15  1.00000000e-15 0
		  1.00000000e-15  1.00000000e-15 0
		  1.00000000e-15 -1.03411435e-15 0
		  1.00000000e-15  1.00000000e-15 0
		  1.00000000e-15  1.00000000e-15 0
		  1.00000000e-15  1.00000000e-15 0
		  1.00000000e-15  1.00000000e-15 0
		  1.00000000e-15  1.00000000e-15 0
		  1.00000000e-15 -1.17298857e-15 0
		</DataArray>
		<DataArray type="Float32" Name="rhs_E" format="ascii">
		  1.00000000e-15  1.00000000e-15  1.00000000e-15  1.00000000e-15  1.00000000e-15  1.00000000e-15  1.63129159e-15  1.00000000e-15
		  1.00000000e-15
		</DataArray>
	</PointData>
</Piece>


<Piece NumberOfPoints="9" NumberOfCells="4">
	<Points>
		<DataArray type="Float32" NumberOfComponents="3" format="ascii">
		  1.46041524e+00 -3.15520411e-15 0
		  1.38048314e+00 -1.98684250e-01 0
		  1.26574034e+00 -3.92593643e-01 0
		  2.01265399e+00 -4.93103132e-15 0
		  1.92372308e+00 -3.08887920e-01 0
		  1.77828814e+00 -6.08805340e-01 0
		  2.56489275e+00 -6.70553324e-15 0
		  2.46696302e+00 -4.19091589e-01 0
		  2.29083593e+00 -8.25017038e-01 0
		</DataArray>
	</Points>
	<Cells>
		<DataArray type="Int32" Name="connectivity" format="ascii">
		   0   1   4   3
		   1   2   5   4
		   3   4   7   6
		   4   5   8   7
		</DataArray>
		<DataArray type="Int32" Name="offsets" format="ascii">
		   4   8  12  16
		</DataArray>
		<DataArray type="UInt8" Name="types" format="ascii">
		   9   9   9   9
		</DataArray>
	</Cells>
	<PointData Scalars="Scalars" Vectors="Vectors">
		<DataArray type="Int32" Name="index" format="ascii">
		   1   1   1   1   1   1   1   1
		   1
		</DataArray>
		<DataArray type="Int32" Name="p_ref" format="ascii">
		   2   2   2   2   2   2   2   2
		   2
		</DataArray>
		<DataArray type="Int32" Name="ml" format="ascii">
		   0   0   0   0   0   0   0   0
		   0
		</DataArray>
		<DataArray type="Float32" Name="$\rho$" format="ascii">
		  9.98586353e-01  9.99565113e-01  1.00038432e+00  9.98196929e-01  9.99764116e-01  9.99843623e-01  9.98101170e-01  1.00039566e+00
		  9.99681062e-01
		</DataArray>
		<DataArray type="Float32" Name="$\mathbf{v}$" NumberOfComponents="3" format="ascii">
		  7.09413349e-02 -1.68637093e-04 0
		  1.00483001e-01  1.01764016e-03 0
		  1.22437612e-01  3.78078493e-04 0
		  7.41574417e-02  2.01265861e-04 0
		  1.11452113e-01  4.64915777e-04 0
		  1.27203894e-01 -1.00123191e-03 0
		  7.94818932e-02  6.32612667e-04 0
		  1.17016572e-01  9.00833098e-04 0
		  1.25440765e-01 -1.37212412e-03 0
		</DataArray>
		<DataArray type="Float32" Name="$\mathit{p}$" format="ascii">
		  1.00028994e+00  1.00008148e+00  1.00054618e+00  9.99559367e-01  9.99887737e-01  9.99595011e-01  9.99294034e-01  1.00045719e+00
		  9.99590363e-01
		</DataArray>
		<DataArray type="Float32" Name="$\mathit{s}$" format="ascii">
		  2.27040386e-03  6.90451625e-04  8.08228752e-06  2.08584755e-03  2.18006971e-04 -1.86125405e-04  1.95467421e-03 -9.67350993e-05
		  3.68635751e-05
		</DataArray>
		<DataArray type="Float32" Name="mach" format="ascii">
		  5.99054629e-02  8.49060625e-02  1.03470792e-01  6.26319796e-02  9.41892243e-02  1.07523611e-01  6.71364814e-02  9.88969428e-02
		  1.06027948e-01
		</DataArray>
		<DataArray type="Float32" Name="rhs_rho" format="ascii">
		  1.00000000e-15  1.00000000e-15  1.00000000e-15  1.00000000e-15  1.00000000e-15  1.00000000e-15  1.00000000e-15  1.00000000e-15
		  1.00000000e-15
		</DataArray>
		<DataArray type="Float32" Name="rhs_velocity" NumberOfComponents="3" format="ascii">
		  1.00000000e-15  1.00000000e-15 0
		  1.00000000e-15  1.00000000e-15 0
		  1.00000000e-15  1.00000000e-15 0
		  1.00000000e-15  1.00000000e-15 0
		  1.00000000e-15  1.00000000e-15 0
		  1.00000000e-15  1.00000000e-15 0
		  1.00000000e-15  1.00000000e-15 0
		  1.00000000e-15  1.00000000e-15 0
		  1.00000000e-15  1.00000000e-15 0
		</DataArray>
		<DataArray type="Float32" Name="rhs_E" format="ascii">
		 -1.94506762e-15  1.00000000e-15 -2.19199407e-15  1.00000000e-15  1.00000000e-15  1.00000000e-15 -1.73811834e-15  1.00000000e-15
		 -1.70170662e-15
		</DataArray>
	</PointData>
</Piece>


<Piece NumberOfPoints="9" NumberOfCells="4">
	<Points>
		<DataArray type="Float32" NumberOfComponents="3" format="ascii">
		  2.56489275e+00 -6.70187890e-15 0
		  2.46696302e+00 -4.19091589e-01 0
		  2.29083593e+00 -8.25017038e-01 0
		  3.19996731e+00 -8.74621043e-15 0
		  3.09168894e+00 -5.45825808e-01 0
		  2.88026589e+00 -1.07366049e+00 0
		  3.83504187e+00 -1.07868876e-14 0
		  3.71641486e+00 -6.72560027e-01 0
		  3.46969585e+00 -1.32230394e+00 0
		</DataArray>
	</Points>
	<Cells>
		<DataArray type="Int32" Name="connectivity" format="ascii">
		   0   1   4   3
		   1   2   5   4
		   3   4   7   6
		   4   5   8   7
		</DataArray>
		<DataArray type="Int32" Name="offsets" format="ascii">
		   4   8  12  16
		</DataArray>
		<DataArray type="UInt8" Name="types" format="ascii">
		   9   9   9   9
		</DataArray>
	</Cells>
	<PointData Scalars="Scalars" Vectors="Vectors">
		<DataArray type="Int32" Name="index" format="ascii">
		   2   2   2   2   2   2   2   2
		   2
		</DataArray>
		<DataArray type="Int32" Name="p_ref" format="ascii">
		   2   2   2   2   2   2   2   2
		   2
		</DataArray>
		<DataArray type="Int32" Name="ml" format="ascii">
		   0   0   0   0   0   0   0   0
		   0
		</DataArray>
		<DataArray type="Float32" Name="$\rho$" format="ascii">
		  9.98017880e-01  1.00033853e+00  9.99421110e-01  9.97935678e-01  1.00047157e+00  9.98968064e-01  9.98104909e-01  1.00060189e+00
		  9.98798101e-01
		</DataArray>
		<DataArray type="Float32" Name="$\mathbf{v}$" NumberOfComponents="3" format="ascii">
		  7.95512223e-02  6.72507124e-04 0
		  1.17296140e-01  8.60627335e-04 0
		  1.25284841e-01 -2.26394467e-03 0
		  8.75388612e-02  8.87946781e-04 0
		  1.19127082e-01  6.85778058e-04 0
		  1.21088532e-01 -1.48480805e-03 0
		  9.39079378e-02  9.85688840e-04 0
		  1.19396437e-01  4.73118104e-04 0
		  1.18648835e-01 -1.14557590e-03 0
		</DataArray>
		<DataArray type="Float32" Name="$\mathit{p}$" format="ascii">
		  9.99191048e-01  1.00035778e+00  9.99229823e-01  9.98869675e-01  1.00041174e+00  9.98954409e-01  9.98860502e-01  1.00057814e+00
		  9.98832187e-01
		</DataArray>
		<DataArray type="Float32" Name="$\mathit{s}$" format="ascii">
		  1.96844193e-03 -1.16148835e-04  4.02067539e-05  1.76207465e-03 -2.48380208e-04  3.99318851e-04  1.51549650e-03 -2.64420548e-04
		  5.15174416e-04
		</DataArray>
		<DataArray type="Float32" Name="mach" format="ascii">
		  6.71959737e-02  9.91350469e-02  1.05912439e-01  7.39530477e-02  1.00685439e-01  1.02346881e-01  7.93410391e-02  1.00910397e-01
		  1.00279531e-01
		</DataArray>
		<DataArray type="Float32" Name="rhs_rho" format="ascii">
		  1.00000000e-15  1.00000000e-15  1.00000000e-15  1.00000000e-15  1.00000000e-15  1.00000000e-15  1.00000000e-15  1.00000000e-15
		  1.00000000e-15
		</DataArray>
		<DataArray type="Float32" Name="rhs_velocity" NumberOfComponents="3" format="ascii">
		  1.00000000e-15  1.00000000e-15 0
		  1.00000000e-15  1.00000000e-15 0
		  1.00000000e-15 -1.14483864e-15 0
		  1.00000000e-15  1.00000000e-15 0
		  1.00000000e-15  1.00000000e-15 0
		  1.00000000e-15  1.00000000e-15 0
		  1.00000000e-15 -1.67485799e-15 0
		  1.00000000e-15  1.00000000e-15 0
		  1.00000000e-15 -1.24742837e-15 0
		</DataArray>
		<DataArray type="Float32" Name="rhs_E" format="ascii">
		  1.00000000e-15  1.23057863e-15  1.00000000e-15  1.25817813e-15  1.00000000e-15  1.00000000e-15  1.62718952e-15 -1.23289159e-15
		  1.00000000e-15
		</DataArray>
	</PointData>
</Piece>


<Piece NumberOfPoints="9" NumberOfCells="4">
	<Points>
		<DataArray type="Float32" NumberOfComponents="3" format="ascii">
		  3.83504187e+00 -1.07805549e-14 0
		  3.71641486e+00 -6.72560027e-01 0
		  3.46969585e+00 -1.32230394e+00 0
		  4.56537762e+00 -1.31336664e-14 0
		  4.43484968e+00 -8.18304379e-01 0
		  4.14754030e+00 -1.60824391e+00 0
		  5.29571337e+00 -1.54804452e-14 0
		  5.15328449e+00 -9.64048731e-01 0
		  4.82538475e+00 -1.89418387e+00 0
		</DataArray>
	</Points>
	<Cells>
		<DataArray type="Int32" Name="connectivity" format="ascii">
		   0   1   4   3
		   1   2   5   4
		   3   4   7   6
		   4   5   8   7
		</DataArray>
		<DataArray type="Int32" Name="offsets" format="ascii">
		   4   8  12  16
		</DataArray>
		<DataArray type="UInt8" Name="types" format="ascii">
		   9   9   9   9
		</DataArray>
	</Cells>
	<PointData Scalars="Scalars" Vectors="Vectors">
		<DataArray type="Int32" Name="index" format="ascii">
		   3   3   3   3   3   3   3   3
		   3
		</DataArray>
		<DataArray type="Int32" Name="p_ref" format="ascii">
		   2   2   2   2   2   2   2   2
		   2
		</DataArray>
		<DataArray type="Int32" Name="ml" format="ascii">
		   0   0   0   0   0   0   0   0
		   0
		</DataArray>
		<DataArray type="Float32" Name="$\rho$" format="ascii">
		  9.98120108e-01  1.00056208e+00  9.98782443e-01  9.98347932e-01  1.00048857e+00  9.98945817e-01  9.98635614e-01  1.00042475e+00
		  9.99084050e-01
		</DataArray>
		<DataArray type="Float32" Name="$\mathbf{v}$" NumberOfComponents="3" format="ascii">
		  9.39829422e-02  9.67408903e-04 0
		  1.19427544e-01  3.03189449e-04 0
		  1.18620673e-01 -1.01889017e-03 0
		  9.89590583e-02  8.65115036e-04 0
		  1.19316411e-01  2.09093179e-04 0
		  1.17942189e-01 -5.78159784e-04 0
		  1.02356253e-01  7.36234248e-04 0
		  1.19175868e-01  9.01124463e-05 0
		  1.17845222e-01 -3.37273455e-04 0
		</DataArray>
		<DataArray type="Float32" Name="$\mathit{p}$" format="ascii">
		  9.98879882e-01  1.00052029e+00  9.98821542e-01  9.98935952e-01  1.00045914e+00  9.98975223e-01  9.99141431e-01  1.00040506e+00
		  9.99093151e-01
		</DataArray>
		<DataArray type="Float32" Name="$\mathit{s}$" format="ascii">
		  1.51357960e-03 -2.66528550e-04  5.26465005e-04  1.25019364e-03 -2.24795798e-04  4.51332041e-04  1.05250635e-03 -1.89552943e-04
		  3.75657748e-04
		</DataArray>
		<DataArray type="Float32" Name="mach" format="ascii">
		  7.94040758e-02  1.00937129e-01  1.00254503e-01  8.36142446e-02  1.00842410e-01  9.96790736e-02  8.64871597e-02  1.00723012e-01
		  9.95973447e-02
		</DataArray>
		<DataArray type="Float32" Name="rhs_rho" format="ascii">
		  1.00000000e-15  1.00000000e-15  1.00000000e-15  1.00000000e-15  1.00000000e-15  1.00000000e-15  1.00000000e-15  1.00000000e-15
		  1.00000000e-15
		</DataArray>
		<DataArray type="Float32" Name="rhs_velocity" NumberOfComponents="3" format="ascii">
		  1.00000000e-15  1.00000000e-15 0
		  1.00000000e-15  1.00000000e-15 0
		  1.00000000e-15  1.00000000e-15 0
		  1.00000000e-15  1.00000000e-15 0
		  1.00000000e-15  1.00000000e-15 0
		  1.00000000e-15  1.00000000e-15 0
		  1.31466540e-15  1.00000000e-15 0
		  1.00000000e-15  1.00000000e-15 0
		  1.00042246e-15  1.00000000e-15 0
		</DataArray>
		<DataArray type="Float32" Name="rhs_E" format="ascii">
		 -1.81602996e-15  1.79257543e-15  1.93214996e-15  1.00000000e-15  1.00000000e-15 -2.81431823e-15  1.00000000e-15  1.00000000e-15
		  1.00000000e-15
		</DataArray>
	</PointData>
</Piece>


<Piece NumberOfPoints="9" NumberOfCells="4">
	<Points>
		<DataArray type="Float32" NumberOfComponents="3" format="ascii">
		  5.29571337e+00 -1.54710323e-14 0
		  5.15328449e+00 -9.64048731e-01 0
		  4.82538475e+00 -1.89418387e+00 0
		  6.13559947e+00 -1.81792408e-14 0
		  5.97948452e+00 -1.13165474e+00 0
		  5.60490587e+00 -2.22301484e+00 0
		  6.97548558e+00 -2.08780364e-14 0
		  6.80568455e+00 -1.29926074e+00 0
		  6.38442699e+00 -2.55184580e+00 0
		</DataArray>
	</Points>
	<Cells>
		<DataArray type="Int32" Name="connectivity" format="ascii">
		   0   1   4   3
		   1   2   5   4
		   3   4   7   6
		   4   5   8   7
		</DataArray>
		<DataArray type="Int32" Name="offsets" format="ascii">
		   4   8  12  16
		</DataArray>
		<DataArray type="UInt8" Name="types" format="ascii">
		   9   9   9   9
		</DataArray>
	</Cells>
	<PointData Scalars="Scalars" Vectors="Vectors">
		<DataArray type="Int32" Name="index" format="ascii">
		   4   4   4   4   4   4   4   4
		   4
		</DataArray>
		<DataArray type="Int32" Name="p_ref" format="ascii">
		   2   2   2   2   2   2   2   2
		   2
		</DataArray>
		<DataArray type="Int32" Name="ml" format="ascii">
		   0   0   0   0   0   0   0   0
		   0
		</DataArray>
		<DataArray type="Float32" Name="$\rho$" format="ascii">
		  9.98624094e-01  1.00042056e+00  9.99098775e-01  9.98812267e-01  1.00035180e+00  9.99236111e-01  9.98989142e-01  1.00030243e+00
		  9.99340151e-01
		</DataArray>
		<DataArray type="Float32" Name="$\mathbf{v}$" NumberOfComponents="3" format="ascii">
		  1.02415901e-01  7.32394235e-04 0
		  1.19173251e-01  5.26645018e-05 0
		  1.17840154e-01 -3.00552476e-04 0
		  1.05050410e-01  6.23938871e-04 0
		  1.19099503e-01  4.66985721e-05 0
		  1.17950217e-01 -2.52381585e-04 0
		  1.06973468e-01  5.29362512e-04 0
		  1.19037869e-01  2.80654398e-05 0
		  1.18046297e-01 -2.09877389e-04 0
		</DataArray>
		<DataArray type="Float32" Name="$\mathit{p}$" format="ascii">
		  9.99122302e-01  1.00039976e+00  9.99112245e-01  9.99228897e-01  1.00033152e+00  9.99246119e-01  9.99357783e-01  1.00028356e+00
		  9.99349199e-01
		</DataArray>
		<DataArray type="Float32" Name="$\mathit{s}$" format="ascii">
		  1.04951149e-03 -1.88974424e-04  3.74133943e-04  8.92414120e-04 -1.60958547e-04  3.15687450e-04  7.73493929e-04 -1.39808277e-04
		  2.73081041e-04
		</DataArray>
		<DataArray type="Float32" Name="mach" format="ascii">
		  8.65378634e-02  1.00720836e-01  9.95927604e-02  8.87668551e-02  1.00658479e-01  9.96858570e-02  9.03935121e-02  1.00606312e-01
		  9.97670364e-02
		</DataArray>
		<DataArray type="Float32" Name="rhs_rho" format="ascii">
		  1.00000000e-15  1.00000000e-15  1.00000000e-15  1.00000000e-15  1.00000000e-15  1.00000000e-15  1.00000000e-15  1.00000000e-15
		  1.00000000e-15
		</DataArray>
		<DataArray type="Float32" Name="rhs_velocity" NumberOfComponents="3" format="ascii">
		  1.00000000e-15 -1.97829889e-15 0
		  1.00000000e-15  1.00000000e-15 0
		 -1.13529860e-15  1.00000000e-15 0
		 -1.13547906e-15  1.56076603e-15 0
		  1.00000000e-15  1.00000000e-15 0
		  1.00000000e-15  1.00000000e-15 0
		  1.75517312e-15 -1.02891476e-15 0
		  1.00000000e-15  1.00000000e-15 0
		  1.00000000e-15  1.00000000e-15 0
		</DataArray>
		<DataArray type="Float32" Name="rhs_E" format="ascii">
		 -1.03830503e-15  1.00000000e-15  1.00000000e-15  1.00000000e-15  1.00000000e-15 -1.36596406e-15 -3.99168475e-15  1.00000000e-15
		  1.00000000e-15
		</DataArray>
	</PointData>
</Piece>


<Piece NumberOfPoints="9" NumberOfCells="4">
	<Points>
		<DataArray type="Float32" NumberOfComponents="3" format="ascii">
		  6.97548558e+00 -2.08650813e-14 0
		  6.80568455e+00 -1.29926074e+00 0
		  6.38442699e+00 -2.55184580e+00 0
		  7.94135461e+00 -2.39816513e-14 0
		  7.75581459e+00 -1.49200764e+00 0
		  7.28087627e+00 -2.93000141e+00 0
		  8.90722363e+00 -2.70852662e-14 0
		  8.70594463e+00 -1.68475455e+00 0
		  8.17732556e+00 -3.30815701e+00 0
		</DataArray>
	</Points>
	<Cells>
		<DataArray type="Int32" Name="connectivity" format="ascii">
		   0   1   4   3
		   1   2   5   4
		   3   4   7   6
		   4   5   8   7
		</DataArray>
		<DataArray type="Int32" Name="offsets" format="ascii">
		   4   8  12  16
		</DataArray>
		<DataArray type="UInt8" Name="types" format="ascii">
		   9   9   9   9
		</DataArray>
	</Cells>
	<PointData Scalars="Scalars" Vectors="Vectors">
		<DataArray type="Int32" Name="index" format="ascii">
		   5   5   5   5   5   5   5   5
		   5
		</DataArray>
		<DataArray type="Int32" Name="p_ref" format="ascii">
		   2   2   2   2   2   2   2   2
		   2
		</DataArray>
		<DataArray type="Int32" Name="ml" format="ascii">
		   0   0   0   0   0   0   0   0
		   0
		</DataArray>
		<DataArray type="Float32" Name="$\rho$" format="ascii">
		  9.98985628e-01  1.00030136e+00  9.99341539e-01  9.99108788e-01  1.00025680e+00  9.99426994e-01  9.99219830e-01  1.00022370e+00
		  9.99493627e-01
		</DataArray>
		<DataArray type="Float32" Name="$\mathbf{v}$" NumberOfComponents="3" format="ascii">
		  1.06998881e-01  5.28853695e-04 0
		  1.19036425e-01  1.49154467e-05 0
		  1.18048483e-01 -2.04303963e-04 0
		  1.08633550e-01  4.59932624e-04 0
		  1.18992982e-01  2.45643650e-05 0
		  1.18150030e-01 -1.83179890e-04 0
		  1.09897071e-01  4.00976730e-04 0
		  1.18955628e-01  2.89214782e-05 0
		  1.18230599e-01 -1.57912995e-04 0
		</DataArray>
		<DataArray type="Float32" Name="$\mathit{p}$" format="ascii">
		  9.99351510e-01  1.00028229e+00  9.99350630e-01  9.99422915e-01  1.00023809e+00  9.99434710e-01  9.99499025e-01  1.00020611e+00
		  9.99500153e-01
		</DataArray>
		<DataArray type="Float32" Name="$\mathit{s}$" format="ascii">
		  7.72141218e-04 -1.39579618e-04  2.72567871e-04  6.71001668e-04 -1.21420939e-04  2.36988360e-04  5.91563345e-04 -1.07062411e-04
		  2.09130200e-04
		</DataArray>
		<DataArray type="Float32" Name="mach" format="ascii">
		  9.04151085e-02  1.00605101e-01  9.97688733e-02  9.17984995e-02  1.00568368e-01  9.98547354e-02  9.28676217e-02  1.00536742e-01
		  9.99228567e-02
		</DataArray>
		<DataArray type="Float32" Name="rhs_rho" format="ascii">
		  1.00000000e-15 -1.29693199e-15  1.00000000e-15  1.00000000e-15  1.00000000e-15  1.00000000e-15  1.00000000e-15 -1.61046456e-15
		  1.00000000e-15
		</DataArray>
		<DataArray type="Float32" Name="rhs_velocity" NumberOfComponents="3" format="ascii">
		  1.32074012e-15  1.00000000e-15 0
		 -1.44799049e-15  1.00000000e-15 0
		  1.55970619e-15 -1.71307361e-15 0
		 -1.42448769e-15  1.38142272e-15 0
		  1.00000000e-15  1.00000000e-15 0
		  1.00000000e-15  1.00000000e-15 0
		  3.76936433e-15 -1.47419165e-15 0
		 -1.73464884e-15  1.00000000e-15 0
		  1.46406930e-15 -1.35167442e-15 0
		</DataArray>
		<DataArray type="Float32" Name="rhs_E" format="ascii">
		  2.26166104e-15 -5.10901252e-15 -1.87761888e-15 -1.60174667e-15  2.66453526e-15 -1.67341126e-15  1.00000000e-15 -6.07648446e-15
		 -1.19615533e-15
		</DataArray>
	</PointData>
</Piece>


<Piece NumberOfPoints="9" NumberOfCells="4">
	<Points>
		<DataArray type="Float32" NumberOfComponents="3" format="ascii">
		  8.90722363e+00 -2.70682376e-14 0
		  8.70594463e+00 -1.68475455e+00 0
		  8.17732556e+00 -3.30815701e+00 0
		  1.00179730e+01 -3.06544234e-14 0
		  9.79859418e+00 -1.90641349e+00 0
		  9.20824224e+00 -3.74303596e+00 0
		  1.11287224e+01 -3.42235806e-14 0
		  1.08912437e+01 -2.12807243e+00 0
		  1.02391589e+01 -4.17791491e+00 0
		</DataArray>
	</Points>
	<Cells>
		<DataArray type="Int32" Name="connectivity" format="ascii">
		   0   1   4   3
		   1   2   5   4
		   3   4   7   6
		   4   5   8   7
		</DataArray>
		<DataArray type="Int32" Name="offsets" format="ascii">
		   4   8  12  16
		</DataArray>
		<DataArray type="UInt8" Name="types" format="ascii">
		   9   9   9   9
		</DataArray>
	</Cells>
	<PointData Scalars="Scalars" Vectors="Vectors">
		<DataArray type="Int32" Name="index" format="ascii">
		   6   6   6   6   6   6   6   6
		   6
		</DataArray>
		<DataArray type="Int32" Name="p_ref" format="ascii">
		   2   2   2   2   2   2   2   2
		   2
		</DataArray>
		<DataArray type="Int32" Name="ml" format="ascii">
		   0   0   0   0   0   0   0   0
		   0
		</DataArray>
		<DataArray type="Float32" Name="$\rho$" format="ascii">
		  9.99219041e-01  1.00022311e+00  9.99494057e-01  9.99300602e-01  1.00019298e+00  9.99550163e-01  9.99372628e-01  1.00016979e+00
		  9.99594057e-01
		</DataArray>
		<DataArray type="Float32" Name="$\mathbf{v}$" NumberOfComponents="3" format="ascii">
		  1.09910117e-01  4.00485403e-04 0
		  1.18954862e-01  2.23307926e-05 0
		  1.18232116e-01 -1.55068549e-04 0
		  1.11049998e-01  3.56460348e-04 0
		  1.18924422e-01  4.33552614e-05 0
		  1.18318045e-01 -1.34654041e-04 0
		  1.11982376e-01  3.19428846e-04 0
		  1.18896298e-01  6.68886429e-05 0
		  1.18398135e-01 -1.12545109e-04 0
		</DataArray>
		<DataArray type="Float32" Name="$\mathit{p}$" format="ascii">
		  9.99497172e-01  1.00020540e+00  9.99500512e-01  9.99541260e-01  1.00017603e+00  9.99554309e-01  9.99585850e-01  1.00015389e+00
		  9.99595799e-01
		</DataArray>
		<DataArray type="Float32" Name="$\mathit{s}$" format="ascii">
		  5.90815599e-04 -1.06936867e-04  2.08886813e-04  5.20654890e-04 -9.41255590e-05  1.84122838e-04  4.64360290e-04 -8.38107413e-05
		  1.64152370e-04
		</DataArray>
		<DataArray type="Float32" Name="mach" format="ascii">
		  9.28786941e-02  1.00536099e-01  9.99241389e-02  9.38435622e-02  1.00510339e-01  9.99968566e-02  9.46326716e-02  1.00486527e-01
		  1.00064645e-01
		</DataArray>
		<DataArray type="Float32" Name="rhs_rho" format="ascii">
		  1.34968974e-15  1.00000000e-15  1.00000000e-15  1.00000000e-15  1.00000000e-15  1.00000000e-15  1.69976192e-15  1.00000000e-15
		  1.00000000e-15
		</DataArray>
		<DataArray type="Float32" Name="rhs_velocity" NumberOfComponents="3" format="ascii">
		 -2.48711162e-15  1.00000000e-15 0
		  2.19211238e-15  1.00000000e-15 0
		 -1.65141015e-15  1.00000000e-15 0
		  1.09612134e-15  1.00000000e-15 0
		 -1.55431223e-15  1.00000000e-15 0
		  1.00000000e-15  1.00000000e-15 0
		 -2.21278276e-15  1.00000000e-15 0
		  4.41371461e-15  1.00000000e-15 0
		 -2.85737866e-15  1.00000000e-15 0
		</DataArray>
		<DataArray type="Float32" Name="rhs_E" format="ascii">
		  4.54304753e-15  2.95595932e-15  1.00000000e-15  1.32008740e-15 -2.22044605e-15  3.39836045e-15  4.95946528e-15  1.00000000e-15
		 -2.86229323e-15
		</DataArray>
	</PointData>
</Piece>


<Piece NumberOfPoints="9" NumberOfCells="4">
	<Points>
		<DataArray type="Float32" NumberOfComponents="3" format="ascii">
		  1.11287224e+01 -3.42018674e-14 0
		  1.08912437e+01 -2.12807243e+00 0
		  1.02391589e+01 -4.17791491e+00 0
		  1.24060842e+01 -3.83281113e-14 0
		  1.21477907e+01 -2.38298022e+00 0
		  1.14247131e+01 -4.67802570e+00 0
		  1.36834460e+01 -4.24326420e-14 0
		  1.34043377e+01 -2.63788800e+00 0
		  1.26102673e+01 -5.17813649e+00 0
		</DataArray>
	</Points>
	<Cells>
		<DataArray type="Int32" Name="connectivity" format="ascii">
		   0   1   4   3
		   1   2   5   4
		   3   4   7   6
		   4   5   8   7
		</DataArray>
		<DataArray type="Int32" Name="offsets" format="ascii">
		   4   8  12  16
		</DataArray>
		<DataArray type="UInt8" Name="types" format="ascii">
		   9   9   9   9
		</DataArray>
	</Cells>
	<PointData Scalars="Scalars" Vectors="Vectors">
		<DataArray type="Int32" Name="index" format="ascii">
		   7   7   7   7   7   7   7   7
		   7
		</DataArray>
		<DataArray type="Int32" Name="p_ref" format="ascii">
		   2   2   2   2   2   2   2   2
		   2
		</DataArray>
		<DataArray type="Int32" Name="ml" format="ascii">
		   0   0   0   0   0   0   0   0
		   0
		</DataArray>
		<DataArray type="Float32" Name="$\rho$" format="ascii">
		  9.99372824e-01  1.00016940e+00  9.99594080e-01  9.99423541e-01  1.00014849e+00  9.99631335e-01  9.99465912e-01  1.00013216e+00
		  9.99659151e-01
		</DataArray>
		<DataArray type="Float32" Name="$\mathbf{v}$" NumberOfComponents="3" format="ascii">
		  1.11991036e-01  3.18882332e-04 0
		  1.18895535e-01  6.26430003e-05 0
		  1.18398969e-01 -1.09898475e-04 0
		  1.12893011e-01  2.92893662e-04 0
		  1.18868073e-01  1.08767768e-04 0
		  1.18496095e-01 -9.10285324e-05 0
		  1.13699262e-01  2.72902794e-04 0
		  1.18838146e-01  1.72578560e-04 0
		  1.18595333e-01 -7.21989031e-05 0
		</DataArray>
		<DataArray type="Float32" Name="$\mathit{p}$" format="ascii">
		  9.99585664e-01  1.00015342e+00  9.99595677e-01  9.99605829e-01  1.00013350e+00  9.99629678e-01  9.99623756e-01  1.00011824e+00
		  9.99653817e-01
		</DataArray>
		<DataArray type="Float32" Name="$\mathit{s}$" format="ascii">
		  4.63900661e-04 -8.37286389e-05  1.63998630e-04  4.13026976e-04 -7.43806632e-05  1.45835132e-04  3.71609026e-04 -6.67868659e-05
		  1.31027355e-04
		</DataArray>
		<DataArray type="Float32" Name="mach" format="ascii">
		  9.46400065e-02  1.00485883e-01  1.00065356e-01  9.54036292e-02  1.00462653e-01  1.00147592e-01  9.60861050e-02  1.00437370e-01
		  1.00231636e-01
		</DataArray>
		<DataArray type="Float32" Name="rhs_rho" format="ascii">
		 -1.20162777e-15  1.00000000e-15  1.00000000e-15  1.00000000e-15  1.00000000e-15  1.00000000e-15 -1.81541830e-15  1.00000000e-15
		  1.00000000e-15
		</DataArray>
		<DataArray type="Float32" Name="rhs_velocity" NumberOfComponents="3" format="ascii">
		  1.00000000e-15 -1.37096887e-15 0
		  1.00000000e-15  1.00000000e-15 0
		  1.72274818e-15 -1.47587038e-15 0
		  1.00000000e-15  1.00000000e-15 0
		  1.00000000e-15  1.00000000e-15 0
		 -1.39218082e-15  1.00000000e-15 0
		  1.00000000e-15 -1.12949154e-15 0
		 -1.13415466e-15  1.00000000e-15 0
		  1.76920017e-15 -2.55567409e-15 0
		</DataArray>
		<DataArray type="Float32" Name="rhs_E" format="ascii">
		 -4.49937801e-15  1.66804849e-15  1.00653231e-15  3.08892665e-15  1.00000000e-15 -1.49760698e-15 -7.47974933e-15  1.00000000e-15
		  1.10240395e-15
		</DataArray>
	</PointData>
</Piece>


<Piece NumberOfPoints="9" NumberOfCells="4">
	<Points>
		<DataArray type="Float32" NumberOfComponents="3" format="ascii">
		  1.36834460e+01 -4.24055416e-14 0
		  1.34043377e+01 -2.63788800e+00 0
		  1.26102673e+01 -5.17813649e+00 0
		  1.51524120e+01 -4.71528524e-14 0
		  1.48493667e+01 -2.93103195e+00 0
		  1.39736546e+01 -5.75326390e+00 0
		  1.66213781e+01 -5.18730627e-14 0
		  1.62943957e+01 -3.22417590e+00 0
		  1.53370419e+01 -6.32839131e+00 0
		</DataArray>
	</Points>
	<Cells>
		<DataArray type="Int32" Name="connectivity" format="ascii">
		   0   1   4   3
		   1   2   5   4
		   3   4   7   6
		   4   5   8   7
		</DataArray>
		<DataArray type="Int32" Name="offsets" format="ascii">
		   4   8  12  16
		</DataArray>
		<DataArray type="UInt8" Name="types" format="ascii">
		   9   9   9   9
		</DataArray>
	</Cells>
	<PointData Scalars="Scalars" Vectors="Vectors">
		<DataArray type="Int32" Name="index" format="ascii">
		   8   8   8   8   8   8   8   8
		   8
		</DataArray>
		<DataArray type="Int32" Name="p_ref" format="ascii">
		   2   2   2   2   2   2   2   2
		   2
		</DataArray>
		<DataArray type="Int32" Name="ml" format="ascii">
		   0   0   0   0   0   0   0   0
		   0
		</DataArray>
		<DataArray type="Float32" Name="$\rho$" format="ascii">
		  9.99467704e-01  1.00013154e+00  9.99657791e-01  9.99485273e-01  1.00011814e+00  9.99683246e-01  9.99494635e-01  1.00010732e+00
		  9.99700065e-01
		</DataArray>
		<DataArray type="Float32" Name="$\mathbf{v}$" NumberOfComponents="3" format="ascii">
		  1.13708619e-01  2.72127662e-04 0
		  1.18836430e-01  1.67537714e-04 0
		  1.18595479e-01 -6.42786103e-05 0
		  1.14582307e-01  2.64503984e-04 0
		  1.18800764e-01  2.84411292e-04 0
		  1.18718970e-01 -5.44805538e-05 0
		  1.15494899e-01  2.63147700e-04 0
		  1.18753817e-01  4.67155692e-04 0
		  1.18807010e-01 -5.24927124e-05 0
		</DataArray>
		<DataArray type="Float32" Name="$\mathit{p}$" format="ascii">
		  9.99625983e-01  1.00011742e+00  9.99651809e-01  9.99612514e-01  1.00010561e+00  9.99673833e-01  9.99594274e-01  1.00009613e+00
		  9.99686180e-01
		</DataArray>
		<DataArray type="Float32" Name="$\mathit{s}$" format="ascii">