<?xml version="1.0"?>
<VTKFile type="UnstructuredGrid" version="0.1" byte_order="LittleEndian">
<UnstructuredGrid>

<Piece NumberOfPoints="9" NumberOfCells="4">
	<Points>
		<DataArray type="Float32" NumberOfComponents="3" format="ascii">
		  5.00000000e-01  1.00000000e-15 0
		  4.37395996e-01 -2.03826579e-03 0
		  3.74986339e-01 -7.98670942e-03 0
		  6.39657493e-01  1.00000000e-15 0
		  5.74760157e-01 -3.00327710e-02 0
		  5.04665260e-01 -6.26162686e-02 0
		  7.79314986e-01  1.00000000e-15 0
		  7.12124318e-01 -5.80272762e-02 0
		  6.34344182e-01 -1.17245828e-01 0
		</DataArray>
	</Points>
	<Cells>
		<DataArray type="Int32" Name="connectivity" format="ascii">
		   0   1   4   3
		   1   2   5   4
		   3   4   7   6
		   4   5   8   7
		</DataArray>
		<DataArray type="Int32" Name="offsets" format="ascii">
		   4   8  12  16
		</DataArray>
		<DataArray type="UInt8" Name="types" format="ascii">
		   9   9   9   9
		</DataArray>
	</Cells>
	<PointData Scalars="Scalars" Vectors="Vectors">
		<DataArray type="Int32" Name="index" format="ascii">
		   0   0   0   0   0   0   0   0
		   0
		</DataArray>
		<DataArray type="Int32" Name="p_ref" format="ascii">
		   2   2   2   2   2   2   2   2
		   2
		</DataArray>
		<DataArray type="Int32" Name="ml" format="ascii">
		   0   0   0   0   0   0   0   0
		   0
		</DataArray>
		<DataArray type="Float32" Name="rho" format="ascii">
		  1.00255129e+00  1.00119367e+00  1.00079969e+00  9.97956105e-01  1.00021655e+00  1.00060836e+00  9.99678583e-01  1.00068011e+00
		  1.00058295e+00
		</DataArray>
		<DataArray type="Float32" Name="velocity" NumberOfComponents="3" format="ascii">
		  1.17853490e-01 -4.60684816e-03 0
		  1.11716063e-01  5.79064056e-03 0
		  1.15418471e-01  1.45009554e-02 0
		  1.21691280e-01 -2.95974348e-03 0
		  1.29485917e-01 -2.44714168e-03 0
		  1.34745702e-01  2.27360995e-03 0
		  1.21191304e-01 -1.67213225e-03 0
		  1.38896189e-01 -1.16372596e-03 0
		  1.41700639e-01 -1.72963377e-03 0
		</DataArray>
		<DataArray type="Float32" Name="p" format="ascii">
		  1.00661824e+00  1.00272595e+00  1.00259744e+00  9.99580425e-01  1.00080260e+00  1.00113511e+00  1.00166079e+00  1.00098010e+00
		  1.00035083e+00
		</DataArray>
		<DataArray type="Float32" Name="s" format="ascii">
		  3.02917303e-03  1.05210662e-03  1.47495262e-03  2.44471805e-03  4.99148708e-04  2.83024351e-04  2.10946433e-03  2.77832599e-05
		 -4.65122504e-04
		</DataArray>
		<DataArray type="Float32" Name="mach" format="ascii">
		  9.94788788e-02  9.44717925e-02  9.82250974e-02  1.02794696e-01  1.09423063e-01  1.13867146e-01  1.02333690e-01  1.17375233e-01
		  1.19781714e-01
		</DataArray>
		<DataArray type="Float32" Name="rhs_rho" format="ascii">
		  1.66649836e-07 -6.84443037e-10 -1.68258321e-07 -3.95231638e-08  1.56342341e-10  3.30433639e-08  6.25252322e-08 -2.35025947e-10
		 -5.96431171e-08
		</DataArray>
		<DataArray type="Float32" Name="rhs_velocity" NumberOfComponents="3" format="ascii">
		  2.38726631e-08 -1.95548558e-07 0
		 -1.38182703e-10  7.74981508e-10 0
		 -4.33227046e-08  1.88214982e-07 0
		 -6.79199368e-09  4.89137589e-08 0
		  3.40558831e-11 -1.91095681e-10 0
		  8.89172181e-09 -4.64529071e-08 0
		  1.01165874e-08 -7.30185239e-08 0
		 -4.72212085e-11  2.87640118e-10 0
		 -1.53596419e-08  7.02408734e-08 0
		</DataArray>
		<DataArray type="Float32" Name="rhs_E" format="ascii">
		  5.86016432e-07 -2.40384738e-09 -5.90760606e-07 -1.39173312e-07  5.48686690e-10  1.16088163e-07  2.20006528e-07 -8.25631530e-10
		 -2.09358174e-07
		</DataArray>
	</PointData>
</Piece>


<Piece NumberOfPoints="9" NumberOfCells="4">
	<Points>
		<DataArray type="Float32" NumberOfComponents="3" format="ascii">
		  7.79314986e-01  1.00000000e-15 0
		  7.12124318e-01 -5.80272762e-02 0
		  6.34344182e-01 -1.17245828e-01 0
		  9.74835462e-01 -1.54696284e-15 0
		  9.04434129e-01 -9.72195806e-02 0
		  8.15894658e-01 -1.93727205e-01 0
		  1.17035594e+00 -2.18888577e-15 0
		  1.09674394e+00 -1.36411885e-01 0
		  9.97445135e-01 -2.70208582e-01 0
		</DataArray>
	</Points>
	<Cells>
		<DataArray type="Int32" Name="connectivity" format="ascii">
		   0   1   4   3
		   1   2   5   4
		   3   4   7   6
		   4   5   8   7
		</DataArray>
		<DataArray type="Int32" Name="offsets" format="ascii">
		   4   8  12  16
		</DataArray>
		<DataArray type="UInt8" Name="types" format="ascii">
		   9   9   9   9
		</DataArray>
	</Cells>
	<PointData Scalars="Scalars" Vectors="Vectors">
		<DataArray type="Int32" Name="index" format="ascii">
		   1   1   1   1   1   1   1   1
		   1
		</DataArray>
		<DataArray type="Int32" Name="p_ref" format="ascii">
		   2   2   2   2   2   2   2   2
		   2
		</DataArray>
		<DataArray type="Int32" Name="ml" format="ascii">
		   0   0   0   0   0   0   0   0
		   0
		</DataArray>
		<DataArray type="Float32" Name="rho" format="ascii">
		  9.98748120e-01  1.00054439e+00  1.00064908e+00  9.98248245e-01  1.00062709e+00  1.00034341e+00  9.98484283e-01  1.00096816e+00
		  1.00014650e+00
		</DataArray>
		<DataArray type="Float32" Name="velocity" NumberOfComponents="3" format="ascii">
		  1.22677413e-01 -2.15688629e-03 0
		  1.39466279e-01 -1.51718548e-03 0
		  1.41631670e-01 -1.77895413e-03 0
		  1.29706811e-01 -1.42797066e-03 0
		  1.41573753e-01 -1.48115268e-03 0
		  1.38535373e-01 -1.50088351e-03 0
		  1.34126910e-01 -1.06821299e-03 0
		  1.41253378e-01 -1.16865264e-03 0
		  1.36013494e-01 -1.16696274e-03 0
		</DataArray>
		<DataArray type="Float32" Name="p" format="ascii">
		  1.00032858e+00  1.00078698e+00  1.00031632e+00  9.99511379e-01  1.00037055e+00  9.99714586e-01  9.99707422e-01  1.00052445e+00
		  9.99664712e-01
		</DataArray>
		<DataArray type="Float32" Name="s" format="ascii">
		  2.08225592e-03  2.47376812e-05 -5.92139901e-04  1.96586721e-03 -5.07160123e-04 -7.66143256e-04  1.83099210e-03 -8.30458930e-04
		 -5.40431531e-04
		</DataArray>
		<DataArray type="Float32" Name="mach" format="ascii">
		  1.03615411e-01  1.17863205e-01  1.19729959e-01  1.09559613e-01  1.19673549e-01  1.17127450e-01  1.13292154e-01  1.19411449e-01
		  1.14984313e-01
		</DataArray>
		<DataArray type="Float32" Name="rhs_rho" format="ascii">
		  2.55213563e-09  1.30963908e-11  5.43893081e-10  2.34554497e-09  1.59534087e-11  1.39177922e-09  4.84921495e-10 -6.48484766e-13
		  5.18529757e-10
		</DataArray>
		<DataArray type="Float32" Name="rhs_velocity" NumberOfComponents="3" format="ascii">
		  7.88575299e-10 -3.00825546e-10 0
		  2.50194604e-12  6.49434727e-13 0
		  2.97249579e-10 -1.97278779e-11 0
		  4.51410224e-10  1.01367313e-10 0
		  5.20444798e-12 -2.59313404e-13 0
		  5.01365933e-10 -1.69588454e-11 0
		  2.78752978e-10 -1.11000942e-10 0
		 -8.56323744e-13  2.36919920e-13 0
		  6.77568601e-11  1.55913381e-11 0
		</DataArray>
		<DataArray type="Float32" Name="rhs_E" format="ascii">
		  9.01123508e-09  4.56452921e-11  2.03993782e-09  8.21139952e-09  5.49179938e-11  4.93520672e-09  1.71322540e-09 -2.88387968e-12
		  1.80336623e-09
		</DataArray>
	</PointData>
</Piece>


<Piece NumberOfPoints="9" NumberOfCells="4">
	<Points>
		<DataArray type="Float32" NumberOfComponents="3" format="ascii">
		  1.17035594e+00 -2.18815991e-15 0
		  1.09674394e+00 -1.36411885e-01 0
		  9.97445135e-01 -2.70208582e-01 0
		  1.44408461e+00 -3.08757788e-15 0
		  1.36597768e+00 -1.91281112e-01 0
		  1.25161581e+00 -3.77282511e-01 0
		  1.71781328e+00 -3.98626999e-15 0
		  1.63521142e+00 -2.46150339e-01 0
		  1.50578648e+00 -4.84356440e-01 0
		</DataArray>
	</Points>
	<Cells>
		<DataArray type="Int32" Name="connectivity" format="ascii">
		   0   1   4   3
		   1   2   5   4
		   3   4   7   6
		   4   5   8   7
		</DataArray>
		<DataArray type="Int32" Name="offsets" format="ascii">
		   4   8  12  16
		</DataArray>
		<DataArray type="UInt8" Name="types" format="ascii">
		   9   9   9   9
		</DataArray>
	</Cells>
	<PointData Scalars="Scalars" Vectors="Vectors">
		<DataArray type="Int32" Name="index" format="ascii">
		   2   2   2   2   2   2   2   2
		   2
		</DataArray>
		<DataArray type="Int32" Name="p_ref" format="ascii">
		   2   2   2   2   2   2   2   2
		   2
		</DataArray>
		<DataArray type="Int32" Name="ml" format="ascii">
		   0   0   0   0   0   0   0   0
		   0
		</DataArray>
		<DataArray type="Float32" Name="rho" format="ascii">
		  9.98381435e-01  1.00090053e+00  1.00007255e+00  9.98572589e-01  1.00087363e+00  9.99877941e-01  9.98907712e-01  1.00085007e+00
		  9.99892352e-01
		</DataArray>
		<DataArray type="Float32" Name="velocity" NumberOfComponents="3" format="ascii">
		  1.34354012e-01 -1.10632695e-03 0
		  1.41347183e-01 -1.33725435e-03 0
		  1.35961945e-01 -1.28458809e-03 0
		  1.38092264e-01 -8.79261722e-04 0
		  1.39968784e-01 -1.07729208e-03 0
		  1.33220343e-01 -9.72886221e-04 0
		  1.40386458e-01 -7.78106098e-04 0
		  1.38382817e-01 -9.24206487e-04 0
		  1.31076587e-01 -7.65856458e-04 0
		</DataArray>
		<DataArray type="Float32" Name="p" format="ascii">
		  9.99589508e-01  1.00039981e+00  9.99603352e-01  9.99513235e-01  1.00024716e+00  9.99596515e-01  9.99641188e-01  1.00020528e+00
		  9.99636379e-01
		</DataArray>
		<DataArray type="Float32" Name="s" format="ascii">
		  1.85725121e-03 -8.60446749e-04 -4.98288876e-04  1.51292027e-03 -9.75418875e-04 -2.32673701e-04  1.17116265e-03 -9.84335149e-04
		 -2.12971711e-04
		</DataArray>
		<DataArray type="Float32" Name="mach" format="ascii">
		  1.13485075e-01  1.19495413e-01  1.14940911e-01  1.16656698e-01  1.18335758e-01  1.12610591e-01  1.18606498e-01  1.16995128e-01
		  1.10796009e-01
		</DataArray>
		<DataArray type="Float32" Name="rhs_rho" format="ascii">
		  9.08726868e-10  6.92846937e-12  8.19992537e-10  1.02840211e-09 -9.62660507e-12  1.40306881e-09  9.87960283e-11 -1.08335025e-11
		  3.63406817e-10
		</DataArray>
		<DataArray type="Float32" Name="rhs_velocity" NumberOfComponents="3" format="ascii">
		  2.69092378e-10 -1.17172672e-11 0
		  2.01758387e-12 -2.29079921e-14 0
		  3.08459725e-10 -2.68632618e-11 0
		  2.63721244e-10  1.41816708e-11 0
		 -2.26024754e-12 -9.26481114e-14 0
		  3.76266180e-10 -1.32481340e-11 0
		  5.42117740e-11 -9.47537313e-12 0
		 -3.07466885e-12  8.30346643e-14 0
		  1.07719575e-10 -7.87013335e-12 0
		</DataArray>
		<DataArray type="Float32" Name="rhs_E" format="ascii">
		  3.18177225e-09  2.36352478e-11  2.87110796e-09  3.57426434e-09 -3.54803548e-11  4.92611083e-09  3.42196919e-10 -3.86267582e-11
		  1.28583837e-09
		</DataArray>
	</PointData>
</Piece>


<Piece NumberOfPoints="9" NumberOfCells="4">
	<Points>
		<DataArray type="Float32" NumberOfComponents="3" format="ascii">
		  1.71781328e+00 -3.98406502e-15 0
		  1.63521142e+00 -2.46150339e-01 0
		  1.50578648e+00 -4.84356440e-01 0
		  2.10103342e+00 -5.24443895e-15 0
		  2.01213865e+00 -3.22967257e-01 0
		  1.86162542e+00 -6.34259942e-01 0
		  2.48425356e+00 -6.50260791e-15 0
		  2.38906589e+00 -3.99784174e-01 0
		  2.21746436e+00 -7.84163444e-01 0
		</DataArray>
	</Points>
	<Cells>
		<DataArray type="Int32" Name="connectivity" format="ascii">
		   0   1   4   3
		   1   2   5   4
		   3   4   7   6
		   4   5   8   7
		</DataArray>
		<DataArray type="Int32" Name="offsets" format="ascii">
		   4   8  12  16
		</DataArray>
		<DataArray type="UInt8" Name="types" format="ascii">
		   9   9   9   9
		</DataArray>
	</Cells>
	<PointData Scalars="Scalars" Vectors="Vectors">
		<DataArray type="Int32" Name="index" format="ascii">
		   3   3   3   3   3   3   3   3
		   3
		</DataArray>
		<DataArray type="Int32" Name="p_ref" format="ascii">
		   2   2   2   2   2   2   2   2
		   2
		</DataArray>
		<DataArray type="Int32" Name="ml" format="ascii">
		   0   0   0   0   0   0   0   0
		   0
		</DataArray>
		<DataArray type="Float32" Name="rho" format="ascii">
		  9.98904391e-01  1.00082818e+00  9.99888026e-01  9.99199037e-01  1.00074805e+00  1.00002471e+00  9.99455975e-01  1.00068298e+00
		  1.00009436e+00
		</DataArray>
		<DataArray type="Float32" Name="velocity" NumberOfComponents="3" format="ascii">
		  1.40472722e-01 -7.67906024e-04 0
		  1.38362602e-01 -1.01854367e-03 0
		  1.31081472e-01 -7.00482684e-04 0
		  1.42000668e-01 -6.84298927e-04 0
		  1.36447833e-01 -8.18518438e-04 0
		  1.29189187e-01 -5.10670147e-04 0
		  1.42698069e-01 -6.44913217e-04 0
		  1.34823633e-01 -7.12512007e-04 0
		  1.27599546e-01 -3.75655447e-04 0
		</DataArray>
		<DataArray type="Float32" Name="p" format="ascii">
		  9.99624192e-01  1.00017595e+00  9.99626015e-01  9.99693874e-01  1.00008745e+00  9.99742017e-01  9.99817094e-01  1.00001582e+00
		  9.99821014e-01
		</DataArray>
		<DataArray type="Float32" Name="s" format="ascii">
		  1.15881520e-03 -9.83032773e-04 -2.17281767e-04  8.15625297e-04 -9.59431116e-04 -2.92609639e-04  5.78919542e-04 -9.40033511e-04
		 -3.11106073e-04
		</DataArray>
		<DataArray type="Float32" Name="mach" format="ascii">
		  1.18680141e-01  1.16979033e-01  1.10800163e-01  1.19984156e-01  1.15359622e-01  1.09201080e-01  1.20581330e-01  1.13986363e-01
		  1.07856507e-01
		</DataArray>
		<DataArray type="Float32" Name="rhs_rho" format="ascii">
		  3.07207152e-10 -7.93845223e-12  5.64275995e-10  2.42377614e-10 -4.38880599e-11  1.01205611e-09 -4.21262656e-11 -2.20923427e-11
		  2.56547789e-10
		</DataArray>
		<DataArray type="Float32" Name="rhs_velocity" NumberOfComponents="3" format="ascii">
		  9.83737992e-11 -2.63541767e-12 0
		 -2.04176598e-12  1.39684982e-14 0
		  1.60577128e-10 -9.16713131e-12 0
		  7.42219609e-11  6.20811225e-12 0
		 -1.16569532e-11  9.03860320e-14 0
		  2.49790097e-10 -1.04419454e-11 0
		 -4.33202024e-12 -3.08712408e-12 0
		 -5.95268171e-12  9.91956095e-14 0
		  6.43398265e-11 -1.08874991e-12 0
		</DataArray>
		<DataArray type="Float32" Name="rhs_E" format="ascii">
		  1.06184649e-09 -2.87460119e-11  1.99211551e-09  8.23280572e-10 -1.56177210e-10  3.56221372e-09 -1.54542048e-10 -7.82605225e-11
		  9.00847956e-10
		</DataArray>
	</PointData>
</Piece>


<Piece NumberOfPoints="9" NumberOfCells="4">
	<Points>
		<DataArray type="Float32" NumberOfComponents="3" format="ascii">
		  2.48425356e+00 -6.49833219e-15 0
		  2.38906589e+00 -3.99784174e-01 0
		  2.21746436e+00 -7.84163444e-01 0
		  3.02076172e+00 -8.26404434e-15 0
		  2.91676399e+00 -5.07327853e-01 0
		  2.71563884e+00 -9.94028333e-01 0
		  3.55726988e+00 -1.00254808e-14 0
		  3.44446209e+00 -6.14871532e-01 0
		  3.21381333e+00 -1.20389322e+00 0
		</DataArray>
	</Points>
	<Cells>
		<DataArray type="Int32" Name="connectivity" format="ascii">
		   0   1   4   3
		   1   2   5   4
		   3   4   7   6
		   4   5   8   7
		</DataArray>
		<DataArray type="Int32" Name="offsets" format="ascii">
		   4   8  12  16
		</DataArray>
		<DataArray type="UInt8" Name="types" format="ascii">
		   9   9   9   9
		</DataArray>
	</Cells>
	<PointData Scalars="Scalars" Vectors="Vectors">
		<DataArray type="Int32" Name="index" format="ascii">
		   4   4   4   4   4   4   4   4
		   4
		</DataArray>
		<DataArray type="Int32" Name="p_ref" format="ascii">
		   2   2   2   2   2   2   2   2
		   2
		</DataArray>
		<DataArray type="Int32" Name="ml" format="ascii">
		   0   0   0   0   0   0   0   0
		   0
		</DataArray>
		<DataArray type="Float32" Name="rho" format="ascii">
		  9.99452732e-01  1.00067967e+00  1.00009921e+00  9.99661050e-01  1.00062493e+00  1.00014019e+00  9.99826172e-01  1.00057048e+00
		  1.00014578e+00
		</DataArray>
		<DataArray type="Float32" Name="velocity" NumberOfComponents="3" format="ascii">
		  1.42732136e-01 -6.41712763e-04 0
		  1.34805848e-01 -7.35136089e-04 0
		  1.27594194e-01 -3.63584707e-04 0
		  1.42966662e-01 -5.86216623e-04 0
		  1.32925533e-01 -5.98477041e-04 0
		  1.25668792e-01 -2.93127547e-04 0
		  1.42904595e-01 -5.51057166e-04 0
		  1.31305022e-01 -5.23939067e-04 0
		  1.23951780e-01 -2.37246685e-04 0
		</DataArray>
		<DataArray type="Float32" Name="p" format="ascii">
		  9.99807372e-01  1.00001086e+00  9.99825860e-01  9.99879269e-01  9.99963832e-01  9.99909309e-01  9.99946873e-01  9.99921494e-01
		  9.99960582e-01
		</DataArray>
		<DataArray type="Float32" Name="s" format="ascii">
		  5.73738499e-04 -9.40349901e-04 -3.13047610e-04  3.53872231e-04 -9.10796030e-04 -2.86942239e-04  1.90252201e-04 -8.76960728e-04
		 -2.43492093e-04
		</DataArray>
		<DataArray type="Float32" Name="mach" format="ascii">
		  1.20610494e-01  1.13971523e-01  1.07851954e-01  1.20816712e-01  1.12380849e-01  1.06222065e-01  1.20770034e-01  1.11009889e-01
		  1.04768267e-01
		</DataArray>
		<DataArray type="Float32" Name="rhs_rho" format="ascii">
		  2.43284477e-11 -2.49016319e-11  4.62169376e-10 -9.14886043e-11 -8.64631908e-11  9.26926922e-10 -6.97801230e-11 -3.81422849e-11
		  2.63351506e-10
		</DataArray>
		<DataArray type="Float32" Name="rhs_velocity" NumberOfComponents="3" format="ascii">
		  1.57671732e-11  1.28241907e-12 0
		 -6.68192986e-12  8.86944683e-14 0
		  1.18903739e-10 -3.90816905e-12 0
		 -2.07083913e-11  4.17849651e-12 0
		 -2.29645192e-11  2.39669395e-13 0
		  2.25402209e-10 -4.61376754e-12 0
		 -1.73099196e-11 -5.58578143e-13 0
		 -1.00677412e-11  1.11215065e-13 0
		  6.37833072e-11 -4.08079886e-13 0
		</DataArray>
		<DataArray type="Float32" Name="rhs_E" format="ascii">
		  7.22008461e-11 -8.85196734e-11  1.62570164e-09 -3.44491345e-10 -3.05991316e-10  3.25543897e-09 -2.50757102e-10 -1.34662531e-10
		  9.23987137e-10
		</DataArray>
	</PointData>
</Piece>


<Piece NumberOfPoints="9" NumberOfCells="4">
	<Points>
		<DataArray type="Float32" NumberOfComponents="3" format="ascii">
		  3.55726988e+00 -1.00183060e-14 0
		  3.44446209e+00 -6.14871532e-01 0
		  3.21381333e+00 -1.20389322e+00 0
		  4.30838130e+00 -1.24914918e-14 0
		  4.18323942e+00 -7.65432680e-01 0
		  3.91125760e+00 -1.49770406e+00 0
		  5.05949271e+00 -1.49575027e-14 0
		  4.92201674e+00 -9.15993828e-01 0
		  4.60870187e+00 -1.79151491e+00 0
		</DataArray>
	</Points>
	<Cells>
		<DataArray type="Int32" Name="connectivity" format="ascii">
		   0   1   4   3
		   1   2   5   4
		   3   4   7   6
		   4   5   8   7
		</DataArray>
		<DataArray type="Int32" Name="offsets" format="ascii">
		   4   8  12  16
		</DataArray>
		<DataArray type="UInt8" Name="types" format="ascii">
		   9   9   9   9
		</DataArray>
	</Cells>
	<PointData Scalars="Scalars" Vectors="Vectors">
		<DataArray type="Int32" Name="index" format="ascii">
		   5   5   5   5   5   5   5   5
		   5
		</DataArray>
		<DataArray type="Int32" Name="p_ref" format="ascii">
		   2   2   2   2   2   2   2   2
		   2
		</DataArray>
		<DataArray type="Int32" Name="ml" format="ascii">
		   0   0   0   0   0   0   0   0
		   0
		</DataArray>
		<DataArray type="Float32" Name="rho" format="ascii">
		  9.99826625e-01  1.00056901e+00  1.00014603e+00  9.99982133e-01  1.00051772e+00  1.00013270e+00  1.00010425e+00  1.00046093e+00
		  1.00009783e+00
		</DataArray>
		<DataArray type="Float32" Name="velocity" NumberOfComponents="3" format="ascii">
		  1.42914977e-01 -5.48780762e-04 0
		  1.31291195e-01 -5.35993589e-04 0
		  1.23945691e-01 -2.30968746e-04 0
		  1.42554989e-01 -5.04979294e-04 0
		  1.29345561e-01 -4.58793766e-04 0
		  1.21881857e-01 -1.91515405e-04 0
		  1.42090718e-01 -4.77622368e-04 0
		  1.27652676e-01 -4.25641531e-04 0
		  1.20115150e-01 -1.71748845e-04 0
		</DataArray>
		<DataArray type="Float32" Name="p" format="ascii">
		  9.99944315e-01  9.99919068e-01  9.99959466e-01  9.99999351e-01  9.99900393e-01  1.00002050e+00  1.00004585e+00  9.99877139e-01
		  1.00005656e+00
		</DataArray>
		<DataArray type="Float32" Name="s" format="ascii">
		  1.87059399e-04 -8.77319325e-04 -2.44955796e-04  2.43653538e-05 -8.24239456e-04 -1.65270899e-04 -1.00096893e-04 -7.68026613e-04
		 -8.03993270e-05
		</DataArray>
		<DataArray type="Float32" Name="mach" format="ascii">
		  1.20778983e-01  1.10998293e-01  1.04763181e-01  1.20480674e-01  1.09351380e-01  1.03014876e-01  1.20092760e-01  1.07918293e-01
		  1.01518028e-01
		</DataArray>
		<DataArray type="Float32" Name="rhs_rho" format="ascii">
		 -8.18413817e-11 -4.69584064e-11  4.56388435e-10 -2.36044898e-10 -1.47244578e-10  8.90191345e-10 -9.14801903e-11 -6.15151594e-11
		  2.43664476e-10
		</DataArray>
		<DataArray type="Float32" Name="rhs_velocity" NumberOfComponents="3" format="ascii">
		 -1.96157489e-11  1.21307867e-12 0
		 -1.25196478e-11  1.44172089e-13 0
		  1.13331194e-10 -1.86210645e-12 0
		 -6.28642997e-11  2.49637513e-12 0
		 -3.85140808e-11  3.63459263e-13 0
		  2.12297118e-10 -2.29081040e-12 0
		 -2.49141979e-11 -1.62524011e-13 0
		 -1.58837985e-11  1.37847689e-13 0
		  5.49510161e-11  1.32427823e-12 0
		</DataArray>
		<DataArray type="Float32" Name="rhs_E" format="ascii">
		 -2.98667287e-10 -1.66120987e-10  1.60264758e-09 -8.48179791e-10 -5.19519538e-10  3.12220193e-09 -3.26041211e-10 -2.16671181e-10
		  8.53650543e-10
		</DataArray>
	</PointData>
</Piece>


<Piece NumberOfPoints="9" NumberOfCells="4">
	<Points>
		<DataArray type="Float32" NumberOfComponents="3" format="ascii">
		  5.05949271e+00 -1.49462693e-14 0
		  4.92201674e+00 -9.15993828e-01 0
		  4.60870187e+00 -1.79151491e+00 0
		  6.11104871e+00 -1.84099181e-14 0
		  5.95630501e+00 -1.12677944e+00 0
		  5.58512386e+00 -2.20285009e+00 0
		  7.16260470e+00 -2.18623335e-14 0
		  6.99059328e+00 -1.33756505e+00 0
		  6.56154585e+00 -2.61418527e+00 0
		</DataArray>
	</Points>
	<Cells>
		<DataArray type="Int32" Name="connectivity" format="ascii">
		   0   1   4   3
		   1   2   5   4
		   3   4   7   6
		   4   5   8   7
		</DataArray>
		<DataArray type="Int32" Name="offsets" format="ascii">
		   4   8  12  16
		</DataArray>
		<DataArray type="UInt8" Name="types" format="ascii">
		   9   9   9   9
		</DataArray>
	</Cells>
	<PointData Scalars="Scalars" Vectors="Vectors">
		<DataArray type="Int32" Name="index" format="ascii">
		   6   6   6   6   6   6   6   6
		   6
		</DataArray>
		<DataArray type="Int32" Name="p_ref" format="ascii">
		   2   2   2   2   2   2   2   2
		   2
		</DataArray>
		<DataArray type="Int32" Name="ml" format="ascii">
		   0   0   0   0   0   0   0   0
		   0
		</DataArray>
		<DataArray type="Float32" Name="rho" format="ascii">
		  1.00010401e+00  1.00046037e+00  1.00009797e+00  1.00023442e+00  1.00040072e+00  1.00005262e+00  1.00033782e+00  1.00033494e+00
		  9.99998599e-01
		</DataArray>
		<DataArray type="Float32" Name="velocity" NumberOfComponents="3" format="ascii">
		  1.42090791e-01 -4.76233452e-04 0
		  1.27641752e-01 -4.31682016e-04 0
		  1.20101384e-01 -1.82229219e-04 0
		  1.41353098e-01 -4.48291295e-04 0
		  1.25587963e-01 -4.03646102e-04 0
		  1.18051493e-01 -1.64841797e-04 0
		  1.40578915e-01 -4.34551446e-04 0
		  1.23816798e-01 -4.17311863e-04 0
		  1.16446870e-01 -1.59160031e-04 0
		</DataArray>
		<DataArray type="Float32" Name="p" format="ascii">
		  1.00004339e+00  9.99875950e-01  1.00005577e+00  1.00009790e+00  9.99874691e-01  1.00011221e+00  1.00014286e+00  9.99864944e-01
		  1.00014699e+00
		</DataArray>
		<DataArray type="Float32" Name="s" format="ascii">
		 -1.02213019e-04 -7.68431963e-04 -8.13885847e-05 -2.30245525e-04 -6.86215251e-04  3.85452130e-05 -3.30021538e-04 -6.03906432e-04
		  1.48944735e-04
		</DataArray>
		<DataArray type="Float32" Name="mach" format="ascii">
		  1.20092950e-01  1.07909109e-01  1.01506454e-01  1.19473926e-01  1.06169666e-01  9.97688466e-02  1.18823016e-01  1.04669480e-01
		  9.84083583e-02
		</DataArray>
		<DataArray type="Float32" Name="rhs_rho" format="ascii">
		 -1.33208238e-10 -7.90838257e-11  4.53137897e-10 -3.17489715e-10 -2.34703965e-10  8.01387785e-10 -1.08416306e-10 -9.37520888e-11
		  1.99336945e-10
		</DataArray>
		<DataArray type="Float32" Name="rhs_velocity" NumberOfComponents="3" format="ascii">
		 -3.64754731e-11  1.30960671e-12 0
		 -2.07050965e-11  1.88114840e-13 0
		  1.06978729e-10  1.04061046e-12 0
		 -8.43599552e-11  5.89498225e-13 0
		 -6.01132477e-11  4.74259521e-13 0
		  1.88004752e-10 -1.85524962e-12 0
		 -3.03682335e-11  1.32793316e-13 0
		 -2.36469995e-11  1.78045965e-13 0
		  3.46092529e-11  5.37909304e-12 0
		</DataArray>
		<DataArray type="Float32" Name="rhs_E" format="ascii">
		 -4.77218497e-10 -2.78960761e-10  1.58894817e-09 -1.13042370e-09 -8.26281765e-10  2.80796035e-09 -3.84627475e-10 -3.29604710e-10
		  6.96792558e-10
		</DataArray>
	</PointData>
</Piece>


<Piece NumberOfPoints="9" NumberOfCells="4">
	<Points>
		<DataArray type="Float32" NumberOfComponents="3" format="ascii">
		  7.16260470e+00 -2.18454180e-14 0
		  6.99059328e+00 -1.33756505e+00 0
		  6.56154585e+00 -2.61418527e+00 0
		  8.63478307e+00 -2.66957150e-14 0
		  8.43859683e+00 -1.63266489e+00 0
		  7.92853661e+00 -3.19005451e+00 0
		  1.01069614e+01 -3.15290965e-14 0
		  9.88660039e+00 -1.92776474e+00 0
		  9.29552737e+00 -3.76592376e+00 0
		</DataArray>
	</Points>
	<Cells>
		<DataArray type="Int32" Name="connectivity" format="ascii">
		   0   1   4   3
		   1   2   5   4
		   3   4   7   6
		   4   5   8   7
		</DataArray>
		<DataArray type="Int32" Name="offsets" format="ascii">
		   4   8  12  16
		</DataArray>
		<DataArray type="UInt8" Name="types" format="ascii">
		   9   9   9   9
		</DataArray>
	</Cells>
	<PointData Scalars="Scalars" Vectors="Vectors">
		<DataArray type="Int32" Name="index" format="ascii">
		   7   7   7   7   7   7   7   7
		   7
		</DataArray>
		<DataArray type="Int32" Name="p_ref" format="ascii">
		   2   2   2   2   2   2   2   2
		   2
		</DataArray>
		<DataArray type="Int32" Name="ml" format="ascii">
		   0   0   0   0   0   0   0   0
		   0
		</DataArray>
		<DataArray type="Float32" Name="rho" format="ascii">
		  1.00033349e+00  1.00033501e+00  9.99995191e-01  1.00046981e+00  1.00025963e+00  9.99958451e-01  1.00058613e+00  1.00017629e+00
		  9.99924981e-01
		</DataArray>
		<DataArray type="Float32" Name="velocity" NumberOfComponents="3" format="ascii">
		  1.40566224e-01 -4.32020888e-04 0
		  1.23807471e-01 -4.23753783e-04 0
		  1.16402368e-01 -2.36035756e-04 0
		  1.39447113e-01 -4.34441144e-04 0
		  1.21695838e-01 -4.55247794e-04 0
		  1.14757801e-01 -1.43384102e-04 0
		  1.38177589e-01 -4.55289979e-04 0
		  1.19998848e-01 -5.79309142e-04 0
		  1.13860965e-01 -6.04982919e-05 0
		</DataArray>
		<DataArray type="Float32" Name="p" format="ascii">
		  1.00013536e+00  9.99864548e-01  1.00014085e+00  1.00022110e+00  9.99872886e-01  1.00022317e+00  1.00030032e+00  9.99864684e-01
		  1.00027202e+00
		</DataArray>
		<DataArray type="Float32" Name="s" format="ascii">
		 -3.31457345e-04 -6.04398102e-04  1.47572620e-04 -4.36503279e-04 -4.90558908e-04  2.81318425e-04 -5.20064890e-04 -3.82110840e-04
		  3.77010364e-04
		</DataArray>
		<DataArray type="Float32" Name="mach" format="ascii">
		  1.18812470e-01  1.04661638e-01  9.83709948e-02  1.17869544e-01  1.02872365e-01  9.69752837e-02  1.16798693e-01  1.01434521e-01
		  9.62133981e-02
		</DataArray>
		<DataArray type="Float32" Name="rhs_rho" format="ascii">
		 -1.57401037e-10 -1.26036458e-10  4.37012525e-10 -3.89390932e-10 -3.50514312e-10  5.81804341e-10 -1.37871066e-10 -1.28707397e-10
		  1.11149055e-10
		</DataArray>
		<DataArray type="Float32" Name="rhs_velocity" NumberOfComponents="3" format="ascii">
		 -4.44744875e-11  2.06067055e-12 0
		 -3.22539317e-11  1.45860864e-13 0
		  1.01363703e-10  4.94201078e-12 0
		 -9.81974614e-11 -3.08916279e-12 0
		 -8.77875550e-11  7.12041537e-13 0
		  1.36104176e-10 -5.17983381e-12 0
		 -3.81017608e-11  7.40861352e-14 0
		 -3.19233429e-11  3.97260239e-13 0
		  1.28195457e-12  1.32018452e-11 0
		</DataArray>
		<DataArray type="Float32" Name="rhs_E" format="ascii">
		 -5.60393065e-10 -4.43619185e-10  1.53156563e-09 -1.37904174e-09 -1.23182337e-09  2.03690990e-09 -4.87253504e-10 -4.51780671e-10
		  3.86598353e-10
		</DataArray>
	</PointData>
</Piece>


<Piece NumberOfPoints="9" NumberOfCells="4">
	<Points>
		<DataArray type="Float32" NumberOfComponents="3" format="ascii">
		  1.01069614e+01 -3.15042259e-14 0
		  9.88660039e+00 -1.92776474e+00 0
		  9.29552737e+00 -3.76592376e+00 0
		  1.21680111e+01 -3.82958306e-14 0
		  1.19138054e+01 -2.34090453e+00 0
		  1.12093144e+01 -4.57214070e+00 0
		  1.42290609e+01 -4.50625646e-14 0
		  1.39410103e+01 -2.75404431e+00 0
		  1.31231015e+01 -5.37835764e+00 0
		</DataArray>
	</Points>
	<Cells>
		<DataArray type="Int32" Name="connectivity" format="ascii">
		   0   1   4   3
		   1   2   5   4
		   3   4   7   6
		   4   5   8   7
		</DataArray>
		<DataArray type="Int32" Name="offsets" format="ascii">
		   4   8  12  16
		</DataArray>
		<DataArray type="UInt8" Name="types" format="ascii">
		   9   9   9   9
		</DataArray>
	</Cells>
	<PointData Scalars="Scalars" Vectors="Vectors">
		<DataArray type="Int32" Name="index" format="ascii">
		   8   8   8   8   8   8   8   8
		   8
		</DataArray>
		<DataArray type="Int32" Name="p_ref" format="ascii">
		   2   2   2   2   2   2   2   2
		   2
		</DataArray>
		<DataArray type="Int32" Name="ml" format="ascii">
		   0   0   0   0   0   0   0   0
		   0
		</DataArray>
		<DataArray type="Float32" Name="rho" format="ascii">
		  1.00056174e+00  1.00018092e+00  9.99915273e-01  1.00079344e+00  1.00007557e+00  9.99992690e-01  1.00100655e+00  9.99966214e-01
		  1.00008558e+00
		</DataArray>
		<DataArray type="Float32" Name="velocity" NumberOfComponents="3" format="ascii">
		  1.38123458e-01 -4.45059061e-04 0
		  1.19996999e-01 -5.72961507e-04 0
		  1.13732875e-01 -3.47555286e-04 0
		  1.36135177e-01 -5.37973527e-04 0
		  1.18142849e-01 -8.04188444e-04 0
		  1.13179060e-01  3.63010014e-05 0
		  1.33272027e-01 -6.64656915e-04 0
		  1.17054417e-01 -1.42414642e-03 0
		  1.13966902e-01  4.47212401e-04 0
		</DataArray>
		<DataArray type="Float32" Name="p" format="ascii">
		  1.00026699e+00  9.99869941e-01  1.00026089e+00  1.00049798e+00  9.99864458e-01  1.00042712e+00  1.00072403e+00  9.99833931e-01
		  1.00052608e+00
		</DataArray>
		<DataArray type="Float32" Name="s" format="ascii">
		 -5.19266834e-04 -3.83328232e-04  3.79476416e-04 -6.12512610e-04 -2.41344320e-04  4.37259343e-04 -6.84692879e-04 -1.18780790e-04
		  4.06130735e-04
		</DataArray>
		<DataArray type="Float32" Name="mach" format="ascii">