<?xml version="1.0"?>
<VTKFile type="PolyData" version="0.1" byte_order="LittleEndian">
<PolyData>

<Piece NumberOfPoints="4" NumberOfVerts="0" NumberOfLines="0" NumberOfStrips="0" NumberOfPolys="0">
	<Points>
		<DataArray type="Float32" NumberOfComponents="3" format="ascii">
		  7.49400542e-15  4.33949026e-03 0
		  7.49400542e-15  2.06255924e-02 0
		  7.49400542e-15  4.18744076e-02 0
		  7.49400542e-15  5.81605097e-02 0
		</DataArray>
	</Points>
	<PointData Vectors="Normals">
		<DataArray type="Float32" Name="Normals" NumberOfComponents="3" format="ascii">
		 -1.00000000e+00 -6.56948964e-14 0
		 -1.00000000e+00 -6.56948964e-14 0
		 -1.00000000e+00 -6.56948964e-14 0
		 -1.00000000e+00 -6.56948964e-14 0
		</DataArray>
	</PointData>
</Piece>


<Piece NumberOfPoints="4" NumberOfVerts="0" NumberOfLines="0" NumberOfStrips="0" NumberOfPolys="0">
	<Points>
		<DataArray type="Float32" NumberOfComponents="3" format="ascii">
		  7.49400542e-15  6.68394903e-02 0
		  7.49400542e-15  8.31255924e-02 0
		  7.49400542e-15  1.04374408e-01 0
		  7.49400542e-15  1.20660510e-01 0
		</DataArray>
	</Points>
	<PointData Vectors="Normals">
		<DataArray type="Float32" Name="Normals" NumberOfComponents="3" format="ascii">
		 -1.00000000e+00 -6.56948964e-14 0
		 -1.00000000e+00 -6.56948964e-14 0
		 -1.00000000e+00 -6.56948964e-14 0
		 -1.00000000e+00 -6.56948964e-14 0
		</DataArray>
	</PointData>
</Piece>


<Piece NumberOfPoints="4" NumberOfVerts="0" NumberOfLines="0" NumberOfStrips="0" NumberOfPolys="0">
	<Points>
		<DataArray type="Float32" NumberOfComponents="3" format="ascii">
		  7.49400542e-15  1.29339490e-01 0
		  7.49400542e-15  1.45625592e-01 0
		  7.49400542e-15  1.66874408e-01 0
		  7.49400542e-15  1.83160510e-01 0
		</DataArray>
	</Points>
	<PointData Vectors="Normals">
		<DataArray type="Float32" Name="Normals" NumberOfComponents="3" format="ascii">
		 -1.00000000e+00 -6.56948964e-14 0
		 -1.00000000e+00 -6.56948964e-14 0
		 -1.00000000e+00 -6.56948964e-14 0
		 -1.00000000e+00 -6.56948964e-14 0
		</DataArray>
	</PointData>
</Piece>


<Piece NumberOfPoints="4" NumberOfVerts="0" NumberOfLines="0" NumberOfStrips="0" NumberOfPolys="0">
	<Points>
		<DataArray type="Float32" NumberOfComponents="3" format="ascii">
		  7.49400542e-15  1.91839490e-01 0
		  7.49400542e-15  2.08125592e-01 0
		  7.49400542e-15  2.29374408e-01 0
		  7.49400542e-15  2.45660510e-01 0
		</DataArray>
	</Points>
	<PointData Vectors="Normals">
		<DataArray type="Float32" Name="Normals" NumberOfComponents="3" format="ascii">
		 -1.00000000e+00 -6.56948964e-14 0
		 -1.00000000e+00 -6.56948964e-14 0
		 -1.00000000e+00 -6.56948964e-14 0
		 -1.00000000e+00 -6.56948964e-14 0
		</DataArray>
	</PointData>
</Piece>


<Piece NumberOfPoints="4" NumberOfVerts="0" NumberOfLines="0" NumberOfStrips="0" NumberOfPolys="0">
	<Points>
		<DataArray type="Float32" NumberOfComponents="3" format="ascii">
		  7.49400542e-15  2.54339490e-01 0
		  7.49400542e-15  2.70625592e-01 0
		  7.49400542e-15  2.91874408e-01 0
		  7.49400542e-15  3.08160510e-01 0
		</DataArray>
	</Points>
	<PointData Vectors="Normals">
		<DataArray type="Float32" Name="Normals" NumberOfComponents="3" format="ascii">
		 -1.00000000e+00 -6.56948964e-14 0
		 -1.00000000e+00 -6.56948964e-14 0
		 -1.00000000e+00 -6.56948964e-14 0
		 -1.00000000e+00 -6.56948964e-14 0
		</DataArray>
	</PointData>
</Piece>


<Piece NumberOfPoints="4" NumberOfVerts="0" NumberOfLines="0" NumberOfStrips="0" NumberOfPolys="0">
	<Points>
		<DataArray type="Float32" NumberOfComponents="3" format="ascii">
		  7.49400542e-15  3.16839490e-01 0
		  7.49400542e-15  3.33125592e-01 0
		  7.49400542e-15  3.54374408e-01 0
		  7.49400542e-15  3.70660510e-01 0
		</DataArray>
	</Points>
	<PointData Vectors="Normals">
		<DataArray type="Float32" Name="Normals" NumberOfComponents="3" format="ascii">
		 -1.00000000e+00 -6.56948964e-14 0
		 -1.00000000e+00 -6.56948964e-14 0
		 -1.00000000e+00 -6.56948964e-14 0
		 -1.00000000e+00 -6.56948964e-14 0
		</DataArray>
	</PointData>
</Piece>


<Piece NumberOfPoints="4" NumberOfVerts="0" NumberOfLines="0" NumberOfStrips="0" NumberOfPolys="0">
	<Points>
		<DataArray type="Float32" NumberOfComponents="3" format="ascii">
		  7.49400542e-15  3.79339490e-01 0
		  7.49400542e-15  3.95625592e-01 0
		  7.49400542e-15  4.16874408e-01 0
		  7.49400542e-15  4.33160510e-01 0
		</DataArray>
	</Points>
	<PointData Vectors="Normals">
		<DataArray type="Float32" Name="Normals" NumberOfComponents="3" format="ascii">
		 -1.00000000e+00 -6.56948964e-14 0
		 -1.00000000e+00 -6.56948964e-14 0
		 -1.00000000e+00 -6.56948964e-14 0
		 -1.00000000e+00 -6.56948964e-14 0
		</DataArray>
	</PointData>
</Piece>


<Piece NumberOfPoints="4" NumberOfVerts="0" NumberOfLines="0" NumberOfStrips="0" NumberOfPolys="0">
	<Points>
		<DataArray type="Float32" NumberOfComponents="3" format="ascii">
		  7.49400542e-15  4.41839490e-01 0
		  7.49400542e-15  4.58125592e-01 0
		  7.49400542e-15  4.79374408e-01 0
		  7.49400542e-15  4.95660510e-01 0
		</DataArray>
	</Points>
	<PointData Vectors="Normals">
		<DataArray type="Float32" Name="Normals" NumberOfComponents="3" format="ascii">
		 -1.00000000e+00 -6.56948964e-14 0
		 -1.00000000e+00 -6.56948964e-14 0
		 -1.00000000e+00 -6.56948964e-14 0
		 -1.00000000e+00 -6.56948964e-14 0
		</DataArray>
	</PointData>
</Piece>


<Piece NumberOfPoints="4" NumberOfVerts="0" NumberOfLines="0" NumberOfStrips="0" NumberOfPolys="0">
	<Points>
		<DataArray type="Float32" NumberOfComponents="3" format="ascii">
		  1.59526151e+00  1.62195332e-01 0
		  1.59580773e+00  1.79129481e-01 0
		  1.59651866e+00  2.01169801e-01 0
		  1.59706222e+00  2.18021295e-01 0
		</DataArray>
	</Points>
	<PointData Vectors="Normals">
		<DataArray type="Float32" Name="Normals" NumberOfComponents="3" format="ascii">
		  9.99480189e-01 -3.22389683e-02 0
		  9.99480189e-01 -3.22389683e-02 0
		  9.99480189e-01 -3.22389683e-02 0
		  9.99480189e-01 -3.22389683e-02 0
		</DataArray>
	</PointData>
</Piece>


<Piece NumberOfPoints="4" NumberOfVerts="0" NumberOfLines="0" NumberOfStrips="0" NumberOfPolys="0">
	<Points>
		<DataArray type="Float32" NumberOfComponents="3" format="ascii">
		  1.59735141e+00  2.26986997e-01 0
		  1.59789321e+00  2.43783850e-01 0
		  1.59859838e+00  2.65645690e-01 0
		  1.59913754e+00  2.82360888e-01 0
		</DataArray>
	</Points>
	<PointData Vectors="Normals">
		<DataArray type="Float32" Name="Normals" NumberOfComponents="3" format="ascii">
		  9.99480189e-01 -3.22389683e-02 0
		  9.99480189e-01 -3.22389683e-02 0
		  9.99480189e-01 -3.22389683e-02 0
		  9.99480189e-01 -3.22389683e-02 0
		</DataArray>
	</PointData>
</Piece>


<Piece NumberOfPoints="4" NumberOfVerts="0" NumberOfLines="0" NumberOfStrips="0" NumberOfPolys="0">
	<Points>
		<DataArray type="Float32" NumberOfComponents="3" format="ascii">
		  1.59942440e+00  2.91254135e-01 0
		  1.59996182e+00  3.07915353e-01 0
		  1.60066130e+00  3.29600873e-01 0
		  1.60119612e+00  3.46181423e-01 0
		</DataArray>
	</Points>
	<PointData Vectors="Normals">
		<DataArray type="Float32" Name="Normals" NumberOfComponents="3" format="ascii">
		  9.99480189e-01 -3.22389683e-02 0
		  9.99480189e-01 -3.22389683e-02 0
		  9.99480189e-01 -3.22389683e-02 0
		  9.99480189e-01 -3.22389683e-02 0
		</DataArray>
	</PointData>
</Piece>


<Piece NumberOfPoints="4" NumberOfVerts="0" NumberOfLines="0" NumberOfStrips="0" NumberOfPolys="0">
	<Points>
		<DataArray type="Float32" NumberOfComponents="3" format="ascii">
		  1.60148067e+00  3.55003088e-01 0
		  1.60201376e+00  3.71530308e-01 0
		  1.60270763e+00  3.93041632e-01 0
		  1.60323815e+00  4.09489154e-01 0
		</DataArray>
	</Points>
	<PointData Vectors="Normals">
		<DataArray type="Float32" Name="Normals" NumberOfComponents="3" format="ascii">
		  9.99480189e-01 -3.22389683e-02 0
		  9.99480189e-01 -3.22389683e-02 0
		  9.99480189e-01 -3.22389683e-02 0
		  9.99480189e-01 -3.22389683e-02 0
		</DataArray>
	</PointData>
</Piece>


<Piece NumberOfPoints="4" NumberOfVerts="0" NumberOfLines="0" NumberOfStrips="0" NumberOfPolys="0">
	<Points>
		<DataArray type="Float32" NumberOfComponents="3" format="ascii">
		  1.60352042e+00  4.18240099e-01 0
		  1.60404925e+00  4.34634931e-01 0
		  1.60473756e+00  4.55974150e-01 0
		  1.60526385e+00  4.72290239e-01 0
		</DataArray>
	</Points>
	<PointData Vectors="Normals">
		<DataArray type="Float32" Name="Normals" NumberOfComponents="3" format="ascii">
		  9.99480189e-01 -3.22389683e-02 0
		  9.99480189e-01 -3.22389683e-02 0
		  9.99480189e-01 -3.22389683e-02 0
		  9.99480189e-01 -3.22389683e-02 0
		</DataArray>
	</PointData>
</Piece>


<Piece NumberOfPoints="4" NumberOfVerts="0" NumberOfLines="0" NumberOfStrips="0" NumberOfPolys="0">
	<Points>
		<DataArray type="Float32" NumberOfComponents="3" format="ascii">
		  1.60554386e+00  4.80971309e-01 0
		  1.60606847e+00  4.97235338e-01 0
		  1.60675130e+00  5.18404509e-01 0
		  1.60727340e+00  5.34590734e-01 0
		</DataArray>
	</Points>
	<PointData Vectors="Normals">
		<DataArray type="Float32" Name="Normals" NumberOfComponents="3" format="ascii">
		  9.99480189e-01 -3.22389683e-02 0
		  9.99480189e-01 -3.22389683e-02 0
		  9.99480189e-01 -3.22389683e-02 0
		  9.99480189e-01 -3.22389683e-02 0
		</DataArray>
	</PointData>
</Piece>


<Piece NumberOfPoints="4" NumberOfVerts="0" NumberOfLines="0" NumberOfStrips="0" NumberOfPolys="0">
	<Points>
		<DataArray type="Float32" NumberOfComponents="3" format="ascii">
		  1.60755119e+00  5.43202764e-01 0
		  1.60807162e+00  5.59337548e-01 0
		  1.60874903e+00  5.80338696e-01 0
		  1.60926699e+00  5.96396601e-01 0
		</DataArray>
	</Points>
	<PointData Vectors="Normals">
		<DataArray type="Float32" Name="Normals" NumberOfComponents="3" format="ascii">
		  9.99480189e-01 -3.22389683e-02 0
		  9.99480189e-01 -3.22389683e-02 0
		  9.99480189e-01 -3.22389683e-02 0
		  9.99480189e-01 -3.22389683e-02 0
		</DataArray>
	</PointData>
</Piece>


<Piece NumberOfPoints="4" NumberOfVerts="0" NumberOfLines="0" NumberOfStrips="0" NumberOfPolys="0">
	<Points>
		<DataArray type="Float32" NumberOfComponents="3" format="ascii">
		  1.60954258e+00  6.04940411e-01 0
		  1.61005890e+00  6.20947485e-01 0
		  1.61073095e+00  6.41782603e-01 0
		  1.61124482e+00  6.57713707e-01 0
		</DataArray>
	</Points>
	<PointData Vectors="Normals">
		<DataArray type="Float32" Name="Normals" NumberOfComponents="3" format="ascii">
		  9.99480189e-01 -3.22389683e-02 0
		  9.99480189e-01 -3.22389683e-02 0
		  9.99480189e-01 -3.22389683e-02 0
		  9.99480189e-01 -3.22389683e-02 0
		</DataArray>
	</PointData>
</Piece>


<Piece NumberOfPoints="4" NumberOfVerts="0" NumberOfLines="0" NumberOfStrips="0" NumberOfPolys="0">
	<Points>
		<DataArray type="Float32" NumberOfComponents="3" format="ascii">
		  3.21100963e-02  3.03330335e-09 0
		  1.45270019e-01  1.49581759e-06 0
		  2.77370450e-01  2.42804410e-05 0
		  3.68381326e-01  8.72063091e-05 0
		</DataArray>
	</Points>
	<PointData Vectors="Normals">
		<DataArray type="Float32" Name="Normals" NumberOfComponents="3" format="ascii">
		  3.82132691e-07 -1.00000000e+00 0
		  4.33932054e-05 -9.99999999e-01 0
		  3.87836301e-04 -9.99999925e-01 0
		  1.08658878e-03 -9.99999410e-01 0
		</DataArray>
	</PointData>
</Piece>


<Piece NumberOfPoints="4" NumberOfVerts="0" NumberOfLines="0" NumberOfStrips="0" NumberOfPolys="0">
	<Points>
		<DataArray type="Float32" NumberOfComponents="3" format="ascii">
		  4.13701850e-01  1.49230356e-04 0
		  4.93438942e-01  3.44275679e-04 0
		  5.88335376e-01  8.15602132e-04 0
		  6.55057292e-01  1.40329638e-03 0
		</DataArray>
	</Points>
	<PointData Vectors="Normals">
		<DataArray type="Float32" Name="Normals" NumberOfComponents="3" format="ascii">
		  1.68526159e-03 -9.99998580e-01 0
		  3.36186024e-03 -9.99994349e-01 0
		  6.92121973e-03 -9.99976048e-01 0
		  1.09491631e-02 -9.99940056e-01 0
		</DataArray>
	</PointData>
</Piece>


<Piece NumberOfPoints="4" NumberOfVerts="0" NumberOfLines="0" NumberOfStrips="0" NumberOfPolys="0">
	<Points>
		<DataArray type="Float32" NumberOfComponents="3" format="ascii">
		  6.88746246e-01  1.81592883e-03 0
		  7.48841310e-01  2.80957140e-03 0
		  8.21852082e-01  4.60782552e-03 0
		  8.74236935e-01  6.43307365e-03 0
		</DataArray>
	</Points>
	<PointData Vectors="Normals">
		<DataArray type="Float32" Name="Normals" NumberOfComponents="3" format="ascii">
		  1.36266947e-02 -9.99907152e-01 0
		  1.97511707e-02 -9.99804927e-01 0
		  3.00869673e-02 -9.99547285e-01 0
		  3.99308345e-02 -9.99202446e-01 0
		</DataArray>
	</PointData>
</Piece>


<Piece NumberOfPoints="4" NumberOfVerts="0" NumberOfLines="0" NumberOfStrips="0" NumberOfPolys="0">
	<Points>
		<DataArray type="Float32" NumberOfComponents="3" format="ascii">
		  9.01033765e-01  7.58241857e-03 0
		  9.49429838e-01  1.00994740e-02 0
		  1.00927175e+00  1.41489775e-02 0
		  1.05291720e+00  1.78869325e-02 0
		</DataArray>
	</Points>
	<PointData Vectors="Normals">
		<DataArray type="Float32" Name="Normals" NumberOfComponents="3" format="ascii">
		  4.58818655e-02 -9.98946873e-01 0
		  5.83874638e-02 -9.98293997e-01 0
		  7.73069084e-02 -9.97007343e-01 0
		  9.37321771e-02 -9.95597448e-01 0
		</DataArray>
	</PointData>
</Piece>


<Piece NumberOfPoints="4" NumberOfVerts="0" NumberOfLines="0" NumberOfStrips="0" NumberOfPolys="0">
	<Points>
		<DataArray type="Float32" NumberOfComponents="3" format="ascii">
		  1.07547079e+00  2.01165717e-02 0
		  1.11658758e+00  2.47650499e-02 0
		  1.16809823e+00  3.17752594e-02 0
		  1.20612233e+00  3.78964592e-02 0
		</DataArray>
	</Points>
	<PointData Vectors="Normals">
		<DataArray type="Float32" Name="Normals" NumberOfComponents="3" format="ascii">
		  1.03130499e-01 -9.94667834e-01 0
		  1.21889344e-01 -9.92543696e-01 0
		  1.48317870e-01 -9.88939740e-01 0
		  1.69799730e-01 -9.85478590e-01 0
		</DataArray>
	</PointData>
</Piece>


<Piece NumberOfPoints="4" NumberOfVerts="0" NumberOfLines="0" NumberOfStrips="0" NumberOfPolys="0">
	<Points>
		<DataArray type="Float32" NumberOfComponents="3" format="ascii">
		  1.22591857e+00  4.14288624e-02 0
		  1.26226406e+00  4.85698133e-02 0
		  1.30826122e+00  5.88948322e-02 0
		  1.34254904e+00  6.75762388e-02 0
		</DataArray>
	</Points>
	<PointData Vectors="Normals">
		<DataArray type="Float32" Name="Normals" NumberOfComponents="3" format="ascii">
		  1.81585275e-01 -9.83375202e-01 0
		  2.04151197e-01 -9.78939369e-01 0
		  2.34036392e-01 -9.72227837e-01 0
		  2.56865936e-01 -9.66447045e-01 0
		</DataArray>
	</PointData>
</Piece>


<Piece NumberOfPoints="4" NumberOfVerts="0" NumberOfLines="0" NumberOfStrips="0" NumberOfPolys="0">
	<Points>
		<DataArray type="Float32" NumberOfComponents="3" format="ascii">
		  1.36051422e+00  7.24710258e-02 0
		  1.39370606e+00  8.21496535e-02 0
		  1.43610990e+00  9.57153370e-02 0
		  1.46801776e+00  1.06797270e-01 0
		</DataArray>
	</Points>
	<PointData Vectors="Normals">
		<DataArray type="Float32" Name="Normals" NumberOfComponents="3" format="ascii">
		  2.68875823e-01 -9.63174850e-01 0
		  2.90906942e-01 -9.56751353e-01 0
		  3.18225196e-01 -9.48015150e-01 0
		  3.37728268e-01 -9.41243654e-01 0
		</DataArray>
	</PointData>
</Piece>


<Piece NumberOfPoints="4" NumberOfVerts="0" NumberOfLines="0" NumberOfStrips="0" NumberOfPolys="0">
	<Points>
		<DataArray type="Float32" NumberOfComponents="3" format="ascii">
		  1.48484000e+00  1.12933087e-01 0
		  1.51611006e+00  1.24854746e-01 0
		  1.55641576e+00  1.41149403e-01 0
		  1.58700286e+00  1.54146754e-01 0
		</DataArray>
	</Points>
	<PointData Vectors="Normals">
		<DataArray type="Float32" Name="Normals" NumberOfComponents="3" format="ascii">
		  3.47525483e-01 -9.37670538e-01 0
		  3.64673618e-01 -9.31135410e-01 0
		  3.84424604e-01 -9.23156392e-01 0
		  3.97426981e-01 -9.17633802e-01 0
		</DataArray>
	</PointData>
</Piece>


<Piece NumberOfPoints="4" NumberOfVerts="0" NumberOfLines="0" NumberOfStrips="0" NumberOfPolys="0">
	<Points>
		<DataArray type="Float32" NumberOfComponents="3" format="ascii">
		  3.21100975e-02  5.00000003e-01 0
		  1.45270594e-01  5.00001587e-01 0
		  2.77379135e-01  5.00025753e-01 0
		  3.68410907e-01  5.00092495e-01 0
		</DataArray>
	</Points>
	<PointData Vectors="Normals">
		<DataArray type="Float32" Name="Normals" NumberOfComponents="3" format="ascii">
		 -4.05312864e-07  1.00000000e+00 0
		 -4.60246622e-05  9.99999999e-01 0
		 -4.11303349e-04  9.99999915e-01 0
		 -1.15205547e-03  9.99999336e-01 0
		</DataArray>
	</PointData>
</Piece>


<Piece NumberOfPoints="4" NumberOfVerts="0" NumberOfLines="0" NumberOfStrips="0" NumberOfPolys="0">
	<Points>
		<DataArray type="Float32" NumberOfComponents="3" format="ascii">
		  4.13751100e-01  5.00158278e-01 0
		  4.93547013e-01  5.00365133e-01 0
		  5.88575804e-01  5.00864931e-01 0
		  6.55452159e-01  5.01487988e-01 0
		</DataArray>
	</Points>
	<PointData Vectors="Normals">
		<DataArray type="Float32" Name="Normals" NumberOfComponents="3" format="ascii">
		 -1.78643942e-03  9.99998404e-01 0
		 -3.56176907e-03  9.99993657e-01 0
		 -7.32481816e-03  9.99973173e-01 0
		 -1.15741082e-02  9.99933018e-01 0
		</DataArray>
	</PointData>
</Piece>


<Piece NumberOfPoints="4" NumberOfVerts="0" NumberOfLines="0" NumberOfStrips="0" NumberOfPolys="0">
	<Points>
		<DataArray type="Float32" NumberOfComponents="3" format="ascii">
		  6.89244962e-01  5.01925359e-01 0
		  7.49579158e-01  5.02978267e-01 0
		  8.22995169e-01  5.04882677e-01 0
		  8.75765947e-01  5.06814226e-01 0
		</DataArray>
	</Points>
	<PointData Vectors="Normals">
		<DataArray type="Float32" Name="Normals" NumberOfComponents="3" format="ascii">
		 -1.43936342e-02  9.99896406e-01 0
		 -2.08280878e-02  9.99783072e-01 0
		 -3.16423982e-02  9.99499254e-01 0
		 -4.18924975e-02  9.99122124e-01 0
		</DataArray>
	</PointData>
</Piece>


<Piece NumberOfPoints="4" NumberOfVerts="0" NumberOfLines="0" NumberOfStrips="0" NumberOfPolys="0">
	<Points>
		<DataArray type="Float32" NumberOfComponents="3" format="ascii">
		  9.02795739e-01  5.08029760e-01 0
		  9.51680253e-01  5.10689750e-01 0
		  1.01225815e+00  5.14963409e-01 0
		  1.05653996e+00  5.18901935e-01 0
		</DataArray>
	</Points>
	<PointData Vectors="Normals">
		<DataArray type="Float32" Name="Normals" NumberOfComponents="3" format="ascii">
		 -4.80666352e-02  9.98844131e-01 0
		 -6.09878997e-02  9.98138505e-01 0
		 -8.04048516e-02  9.96762289e-01 0
		 -9.71396787e-02  9.95270759e-01 0
		</DataArray>
	</PointData>
</Piece>


<Piece NumberOfPoints="4" NumberOfVerts="0" NumberOfLines="0" NumberOfStrips="0" NumberOfPolys="0">
	<Points>
		<DataArray type="Float32" NumberOfComponents="3" format="ascii">
		  1.07945676e+00  5.21248320e-01 0
		  1.12129707e+00  5.26133264e-01 0
		  1.17382536e+00  5.33482409e-01 0
		  1.21267705e+00  5.39882245e-01 0
		</DataArray>
	</Points>
	<PointData Vectors="Normals">
		<DataArray type="Float32" Name="Normals" NumberOfComponents="3" format="ascii">
		 -1.06665946e-01  9.94294914e-01 0
		 -1.25576879e-01  9.92083891e-01 0
		 -1.51995313e-01  9.88381214e-01 0
		 -1.73284270e-01  9.84871851e-01 0
		</DataArray>
	</PointData>
</Piece>


<Piece NumberOfPoints="4" NumberOfVerts="0" NumberOfLines="0" NumberOfStrips="0" NumberOfPolys="0">
	<Points>
		<DataArray type="Float32" NumberOfComponents="3" format="ascii">
		  1.23292821e+00  5.43568121e-01 0
		  1.27014803e+00  5.51003020e-01 0
		  1.31731380e+00  5.61714637e-01 0
		  1.35250684e+00  5.70686137e-01 0
		</DataArray>
	</Points>
	<PointData Vectors="Normals">
		<DataArray type="Float32" Name="Normals" NumberOfComponents="3" format="ascii">
		 -1.84896281e-01  9.82758040e-01 0
		 -2.07000495e-01  9.78340838e-01 0
		 -2.36021459e-01  9.71747843e-01 0
		 -2.58003424e-01  9.66144002e-01 0
		</DataArray>
	</PointData>
</Piece>


<Piece NumberOfPoints="4" NumberOfVerts="0" NumberOfLines="0" NumberOfStrips="0" NumberOfPolys="0">
	<Points>
		<DataArray type="Float32" NumberOfComponents="3" format="ascii">
		  1.37095409e+00  5.75730474e-01 0
		  1.40504354e+00  5.85675209e-01 0
		  1.44859076e+00  5.99548075e-01 0
		  1.48134122e+00  6.10824350e-01 0
		</DataArray>
	</Points>
	<PointData Vectors="Normals">
		<DataArray type="Float32" Name="Normals" NumberOfComponents="3" format="ascii">
		 -2.69503718e-01  9.62999349e-01 0
		 -2.90486828e-01  9.56878991e-01 0
		 -3.16300075e-01  9.48659192e-01 0
		 -3.34583146e-01  9.42366234e-01 0
		</DataArray>
	</PointData>
</Piece>


<Piece NumberOfPoints="4" NumberOfVerts="0" NumberOfLines="0" NumberOfStrips="0" NumberOfPolys="0">
	<Points>
		<DataArray type="Float32" NumberOfComponents="3" format="ascii">
		  1.49859678e+00  6.17046014e-01 0
		  1.53064444e+00  6.29090403e-01 0
		  1.57188227e+00  6.45459338e-01 0
		  1.60310993e+00  6.58439177e-01 0
		</DataArray>
	</Points>
	<PointData Vectors="Normals">
		<DataArray type="Float32" Name="Normals" NumberOfComponents="3" format="ascii">
		 -3.43718057e-01  9.39072892e-01 0
		 -3.59617710e-01  9.33099728e-01 0
		 -3.77760260e-01  9.25903443e-01 0
		 -3.89567666e-01  9.20997847e-01 0
		</DataArray>
	</PointData>
</Piece>


<Piece NumberOfPoints="4" NumberOfVerts="0" NumberOfLines="0" NumberOfStrips="0" NumberOfPolys="0">
	<Points>
		<DataArray type="Float32" NumberOfComponents="3" format="ascii">
		  7.49400542e-15  5.04339490e-01 0
		  7.49400542e-15  5.20625592e-01 0
		  7.49400542e-15  5.41874408e-01 0
		  7.49400542e-15  5.58160510e-01 0
		</DataArray>
	</Points>
	<PointData Vectors="Normals">
		<DataArray type="Float32" Name="Normals" NumberOfComponents="3" format="ascii">
		 -1.00000000e+00 -6.56948964e-14 0
		 -1.00000000e+00 -6.56948964e-14 0
		 -1.00000000e+00 -6.56948964e-14 0
		 -1.00000000e+00 -6.56948964e-14 0
		</DataArray>
	</PointData>
</Piece>


<Piece NumberOfPoints="4" NumberOfVerts="0" NumberOfLines="0" NumberOfStrips="0" NumberOfPolys="0">
	<Points>
		<DataArray type="Float32" NumberOfComponents="3" format="ascii">
		  7.49400542e-15  5.66839490e-01 0
		  7.49400542e-15  5.83125592e-01 0
		  7.49400542e-15  6.04374408e-01 0
		  7.49400542e-15  6.20660510e-01 0
		</DataArray>
	</Points>
	<PointData Vectors="Normals">
		<DataArray type="Float32" Name="Normals" NumberOfComponents="3" format="ascii">
		 -1.00000000e+00 -6.56948964e-14 0
		 -1.00000000e+00 -6.56948964e-14 0
		 -1.00000000e+00 -6.56948964e-14 0
		 -1.00000000e+00 -6.56948964e-14 0
		</DataArray>
	</PointData>
</Piece>


<Piece NumberOfPoints="4" NumberOfVerts="0" NumberOfLines="0" NumberOfStrips="0" NumberOfPolys="0">
	<Points>
		<DataArray type="Float32" NumberOfComponents="3" format="ascii">
		  7.49400542e-15  6.29339490e-01 0
		  7.49400542e-15  6.45625592e-01 0
		  7.49400542e-15  6.66874408e-01 0
		  7.49400542e-15  6.83160510e-01 0
		</DataArray>
	</Points>
	<PointData Vectors="Normals">
		<DataArray type="Float32" Name="Normals" NumberOfComponents="3" format="ascii">
		 -1.00000000e+00 -6.56948964e-14 0
		 -1.00000000e+00 -6.56948964e-14 0
		 -1.00000000e+00 -6.56948964e-14 0
		 -1.00000000e+00 -6.56948964e-14 0
		</DataArray>
	</PointData>
</Piece>


<Piece NumberOfPoints="4" NumberOfVerts="0" NumberOfLines="0" NumberOfStrips="0" NumberOfPolys="0">
	<Points>
		<DataArray type="Float32" NumberOfComponents="3" format="ascii">
		  7.49400542e-15  6.91839490e-01 0
		  7.49400542e-15  7.08125592e-01 0
		  7.49400542e-15  7.29374408e-01 0
		  7.49400542e-15  7.45660510e-01 0
		</DataArray>
	</Points>
	<PointData Vectors="Normals">
		<DataArray type="Float32" Name="Normals" NumberOfComponents="3" format="ascii">
		 -1.00000000e+00 -6.56948964e-14 0
		 -1.00000000e+00 -6.56948964e-14 0
		 -1.00000000e+00 -6.56948964e-14 0
		 -1.00000000e+00 -6.56948964e-14 0
		</DataArray>
	</PointData>
</Piece>


<Piece NumberOfPoints="4" NumberOfVerts="0" NumberOfLines="0" NumberOfStrips="0" NumberOfPolys="0">
	<Points>
		<DataArray type="Float32" NumberOfComponents="3" format="ascii">
		  7.49400542e-15  7.54339490e-01 0
		  7.49400542e-15  7.70625592e-01 0
		  7.49400542e-15  7.91874408e-01 0
		  7.49400542e-15  8.08160510e-01 0
		</DataArray>
	</Points>
	<PointData Vectors="Normals">
		<DataArray type="Float32" Name="Normals" NumberOfComponents="3" format="ascii">
		 -1.00000000e+00 -6.56948964e-14 0
		 -1.00000000e+00 -6.56948964e-14 0
		 -1.00000000e+00 -6.56948964e-14 0
		 -1.00000000e+00 -6.56948964e-14 0
		</DataArray>
	</PointData>
</Piece>


<Piece NumberOfPoints="4" NumberOfVerts="0" NumberOfLines="0" NumberOfStrips="0" NumberOfPolys="0">
	<Points>
		<DataArray type="Float32" NumberOfComponents="3" format="ascii">
		  7.49400542e-15  8.16839490e-01 0
		  7.49400542e-15  8.33125592e-01 0
		  7.49400542e-15  8.54374408e-01 0
		  7.49400542e-15  8.70660510e-01 0
		</DataArray>
	</Points>
	<PointData Vectors="Normals">
		<DataArray type="Float32" Name="Normals" NumberOfComponents="3" format="ascii">
		 -1.00000000e+00 -6.56948964e-14 0
		 -1.00000000e+00 -6.56948964e-14 0
		 -1.00000000e+00 -6.56948964e-14 0
		 -1.00000000e+00 -6.56948964e-14 0
		</DataArray>
	</PointData>
</Piece>


<Piece NumberOfPoints="4" NumberOfVerts="0" NumberOfLines="0" NumberOfStrips="0" NumberOfPolys="0">
	<Points>
		<DataArray type="Float32" NumberOfComponents="3" format="ascii">
		  7.49400542e-15  8.79339490e-01 0
		  7.49400542e-15  8.95625592e-01 0
		  7.49400542e-15  9.16874408e-01 0
		  7.49400542e-15  9.33160510e-01 0
		</DataArray>
	</Points>
	<PointData Vectors="Normals">
		<DataArray type="Float32" Name="Normals" NumberOfComponents="3" format="ascii">
		 -1.00000000e+00 -6.56948964e-14 0
		 -1.00000000e+00 -6.56948964e-14 0
		 -1.00000000e+00 -6.56948964e-14 0
		 -1.00000000e+00 -6.56948964e-14 0
		</DataArray>
	</PointData>
</Piece>


<Piece NumberOfPoints="4" NumberOfVerts="0" NumberOfLines="0" NumberOfStrips="0" NumberOfPolys="0">
	<Points>
		<DataArray type="Float32" NumberOfComponents="3" format="ascii">
		  7.49400542e-15  9.41839490e-01 0
		  7.49400542e-15  9.58125592e-01 0
		  7.49400542e-15  9.79374408e-01 0
		  7.49400542e-15  9.95660510e-01 0
		</DataArray>
	</Points>
	<PointData Vectors="Normals">
		<DataArray type="Float32" Name="Normals" NumberOfComponents="3" format="ascii">
		 -1.00000000e+00 -6.56948964e-14 0
		 -1.00000000e+00 -6.56948964e-14 0
		 -1.00000000e+00 -6.56948964e-14 0
		 -1.00000000e+00 -6.56948964e-14 0
		</DataArray>
	</PointData>
</Piece>


<Piece NumberOfPoints="4" NumberOfVerts="0" NumberOfLines="0" NumberOfStrips="0" NumberOfPolys="0">
	<Points>
		<DataArray type="Float32" NumberOfComponents="3" format="ascii">
		  1.61151823e+00  6.66190105e-01 0
		  1.61203048e+00  6.82070980e-01 0
		  1.61269724e+00  7.02742028e-01 0
		  1.61320707e+00  7.18547828e-01 0
		</DataArray>
	</Points>
	<PointData Vectors="Normals">
		<DataArray type="Float32" Name="Normals" NumberOfComponents="3" format="ascii">
		  9.99480189e-01 -3.22389683e-02 0
		  9.99480189e-01 -3.22389683e-02 0
		  9.99480189e-01 -3.22389683e-02 0
		  9.99480189e-01 -3.22389683e-02 0
		</DataArray>
	</PointData>
</Piece>


<Piece NumberOfPoints="4" NumberOfVerts="0" NumberOfLines="0" NumberOfStrips="0" NumberOfPolys="0">
	<Points>
		<DataArray type="Float32" NumberOfComponents="3" format="ascii">
		  1.61347833e+00  7.26957609e-01 0
		  1.61398656e+00  7.42713770e-01 0
		  1.61464809e+00  7.63222678e-01 0
		  1.61515392e+00  7.78904647e-01 0
		</DataArray>
	</Points>
	<PointData Vectors="Normals">
		<DataArray type="Float32" Name="Normals" NumberOfComponents="3" format="ascii">
		  9.99480189e-01 -3.22389683e-02 0
		  9.99480189e-01 -3.22389683e-02 0
		  9.99480189e-01 -3.22389683e-02 0
		  9.99480189e-01 -3.22389683e-02 0
		</DataArray>
	</PointData>
</Piece>


<Piece NumberOfPoints="4" NumberOfVerts="0" NumberOfLines="0" NumberOfStrips="0" NumberOfPolys="0">
	<Points>
		<DataArray type="Float32" NumberOfComponents="3" format="ascii">
		  1.61542306e+00  7.87248592e-01 0
		  1.61592731e+00  8.02881504e-01 0
		  1.61658368e+00  8.23230173e-01 0
		  1.61708556e+00  8.38789760e-01 0
		</DataArray>
	</Points>
	<PointData Vectors="Normals">
		<DataArray type="Float32" Name="Normals" NumberOfComponents="3" format="ascii">
		  9.99480189e-01 -3.22389683e-02 0
		  9.99480189e-01 -3.22389683e-02 0
		  9.99480189e-01 -3.22389683e-02 0
		  9.99480189e-01 -3.22389683e-02 0
		</DataArray>
	</PointData>
</Piece>


<Piece NumberOfPoints="4" NumberOfVerts="0" NumberOfLines="0" NumberOfStrips="0" NumberOfPolys="0">
	<Points>
		<DataArray type="Float32" NumberOfComponents="3" format="ascii">
		  1.61735260e+00  8.47068640e-01 0
		  1.61785292e+00  8.62579743e-01 0
		  1.61850418e+00  8.82770044e-01 0
		  1.61900216e+00  8.98208676e-01 0
		</DataArray>
	</Points>
	<PointData Vectors="Normals">
		<DataArray type="Float32" Name="Normals" NumberOfComponents="3" format="ascii">
		  9.99480189e-01 -3.22389683e-02 0
		  9.99480189e-01 -3.22389683e-02 0
		  9.99480189e-01 -3.22389683e-02 0
		  9.99480189e-01 -3.22389683e-02 0
		</DataArray>
	</PointData>
</Piece>


<Piece NumberOfPoints="4" NumberOfVerts="0" NumberOfLines="0" NumberOfStrips="0" NumberOfPolys="0">
	<Points>
		<DataArray type="Float32" NumberOfComponents="3" format="ascii">
		  1.61926713e+00  9.06423248e-01 0
		  1.61976357e+00  9.21813960e-01 0
		  1.62040977e+00  9.41847734e-01 0
		  1.62090390e+00  9.57166816e-01 0
		</DataArray>
	</Points>
	<PointData Vectors="Normals">
		<DataArray type="Float32" Name="Normals" NumberOfComponents="3" format="ascii">
		  9.99480189e-01 -3.22389683e-02 0
		  9.99480189e-01 -3.22389683e-02 0
		  9.99480189e-01 -3.22389683e-02 0
		  9.99480189e-01 -3.22389683e-02 0
		</DataArray>
	</PointData>
</Piece>


<Piece NumberOfPoints="4" NumberOfVerts="0" NumberOfLines="0" NumberOfStrips="0" NumberOfPolys="0">
	<Points>
		<DataArray type="Float32" NumberOfComponents="3" format="ascii">
		  1.62116682e+00  9.65317828e-01 0
		  1.62165942e+00  9.80589544e-01 0
		  1.62230063e+00  1.00046860e+00 0
		  1.62279095e+00  1.01566952e+00 0
		</DataArray>
	</Points>
	<PointData Vectors="Normals">
		<DataArray type="Float32" Name="Normals" NumberOfComponents="3" format="ascii">
		  9.99480189e-01 -3.22389683e-02 0
		  9.99480189e-01 -3.22389683e-02 0