<?xml version="1.0"?>
<VTKFile type="UnstructuredGrid" version="0.1" byte_order="LittleEndian">
<UnstructuredGrid>

<Piece NumberOfPoints="16" NumberOfCells="9">
	<Points>
		<DataArray type="Float32" NumberOfComponents="3" format="ascii">
		  5.00000000e-01  1.00000000e-15 0
		  4.66587013e-01 -3.91757974e-04 0
		  4.33229306e-01  7.84421006e-04 0
		  3.99926880e-01  3.52853694e-03 0
		  7.50397924e-01  1.00000000e-15 0
		  7.15995021e-01 -2.74671224e-02 0
		  6.78897566e-01 -5.27074134e-02 0
		  6.39105558e-01 -7.57208730e-02 0
		  1.00079585e+00 -1.67065524e-15 0
		  9.65403030e-01 -5.45424868e-02 0
		  9.24565826e-01 -1.06199248e-01 0
		  8.78284236e-01 -1.54970283e-01 0
		  1.25119377e+00 -2.49502196e-15 0
		  1.21481104e+00 -8.16178512e-02 0
		  1.17023409e+00 -1.59691082e-01 0
		  1.11746291e+00 -2.34219693e-01 0
		</DataArray>
	</Points>
	<Cells>
		<DataArray type="Int32" Name="connectivity" format="ascii">
		   0   1   5   4
		   1   2   6   5
		   2   3   7   6
		   4   5   9   8
		   5   6  10   9
		   6   7  11  10
		   8   9  13  12
		   9  10  14  13
		  10  11  15  14
		</DataArray>
		<DataArray type="Int32" Name="offsets" format="ascii">
		   4   8  12  16  20  24  28  32  36
		</DataArray>
		<DataArray type="UInt8" Name="types" format="ascii">
		   9   9   9   9   9   9   9   9   9
		</DataArray>
	</Cells>
	<PointData Scalars="Scalars" Vectors="Vectors">
		<DataArray type="Int32" Name="index" format="ascii">
		   0   0   0   0   0   0   0   0
		   0   0   0   0   0   0   0   0
		</DataArray>
		<DataArray type="Int32" Name="p_ref" format="ascii">
		   3   3   3   3   3   3   3   3
		   3   3   3   3   3   3   3   3
		</DataArray>
		<DataArray type="Int32" Name="ml" format="ascii">
		   0   0   0   0   0   0   0   0
		   0   0   0   0   0   0   0   0
		</DataArray>
		<DataArray type="Float32" Name="rho" format="ascii">
		  1.00091912e+00  9.99490720e-01  9.98890911e-01  9.98164244e-01  9.97425176e-01  9.99133418e-01  9.99620708e-01  1.00018706e+00
		  9.98455019e-01  9.99622087e-01  9.99732403e-01  1.00038769e+00  9.97422694e-01  9.99616039e-01  1.00010873e+00  1.00066827e+00
		</DataArray>
		<DataArray type="Float32" Name="velocity" NumberOfComponents="3" format="ascii">
		  4.87665382e-02 -5.91927541e-03 0
		  7.13142632e-02 -3.92020253e-03 0
		  8.99509614e-02 -6.21823819e-03 0
		  9.93993996e-02 -1.02861909e-02 0
		  5.89795706e-02 -6.71222603e-04 0
		  9.63475685e-02 -1.97543569e-03 0
		  1.02211000e-01 -2.16084433e-03 0
		  9.85986150e-02 -9.62036569e-04 0
		  7.10810634e-02 -1.15144429e-03 0
		  1.01900541e-01 -1.29615904e-03 0
		  1.05579855e-01 -1.58290141e-03 0
		  1.07323606e-01 -3.43627049e-04 0
		  8.48684189e-02 -4.21421434e-04 0
		  1.02581706e-01 -1.31610560e-03 0
		  1.09350866e-01 -1.44875946e-03 0
		  1.21375671e-01 -9.57518026e-04 0
		</DataArray>
		<DataArray type="Float32" Name="p" format="ascii">
		  1.00489819e+00  1.00147345e+00  1.00007203e+00  9.99415494e-01  9.99019560e-01  1.00020963e+00  1.00027385e+00  1.00078497e+00
		  9.99954140e-01  1.00039687e+00  9.99864395e-01  1.00056153e+00  9.98309536e-01  1.00006862e+00  1.00011326e+00  1.00084535e+00
		</DataArray>
		<DataArray type="Float32" Name="s" format="ascii">
		  3.60005652e-03  2.18554165e-03  1.62561448e-03  1.98774309e-03  2.62848090e-03  1.42334637e-03  8.04920885e-04  5.22801212e-04
		  2.11878510e-03  9.25966613e-04  2.39072349e-04  1.87203368e-05  1.92099155e-03  6.06265030e-04 -3.89596376e-05 -9.02747885e-05
		</DataArray>
		<DataArray type="Float32" Name="mach" format="ascii">
		  4.14354707e-02  6.03027653e-02  7.61588580e-02  8.44035545e-02  4.98102680e-02  8.14018423e-02  8.63751501e-02  8.33101079e-02
		  6.00372904e-02  8.60952839e-02  8.92354007e-02  9.06975872e-02  7.16959231e-02  8.66848788e-02  9.24262513e-02  1.02575282e-01
		</DataArray>
		<DataArray type="Float32" Name="rhs_rho" format="ascii">
		 -8.18506638e-08 -8.11407348e-07 -1.80064962e-06 -9.42370916e-07  3.44911142e-08  1.52610539e-07  4.12373100e-07  2.37473872e-07
		 -1.76932394e-08 -9.64334376e-08 -2.25570023e-07 -1.71074549e-07  2.76934513e-08  2.28712491e-07  5.21871250e-07  2.87323953e-07
		</DataArray>
		<DataArray type="Float32" Name="rhs_velocity" NumberOfComponents="3" format="ascii">
		  7.10001835e-09  1.14336773e-07 0
		 -8.44501735e-08  9.00231641e-07 0
		 -7.14129197e-08  2.08013292e-06 0
		  4.86136000e-08  1.15319677e-06 0
		  1.62423703e-09 -2.94902963e-08 0
		  1.34157199e-08 -2.31983469e-07 0
		  9.66085094e-09 -5.36587437e-07 0
		 -1.52308773e-08 -2.99384641e-07 0
		 -1.20441912e-10  1.43864572e-08 0
		 -1.08626254e-08  1.10425092e-07 0
		 -9.41344955e-09  2.56299677e-07 0
		 -6.15355576e-09  1.43122743e-07 0
		 -1.39264108e-09 -3.68823332e-08 0
		  2.35292515e-08 -2.84203037e-07 0
		  1.52404752e-08 -6.59864966e-07 0
		 -1.53612584e-08 -3.69447725e-07 0
		</DataArray>
		<DataArray type="Float32" Name="rhs_E" format="ascii">
		 -2.87167407e-07 -2.84738974e-06 -6.31766637e-06 -3.30765972e-06  1.21219675e-07  5.35810484e-07  1.44770508e-06  8.34232912e-07
		 -6.20362825e-08 -3.38169559e-07 -7.90805324e-07 -6.00954903e-07  9.71509980e-08  8.02708884e-07  1.83105476e-06  1.00908103e-06
		</DataArray>
	</PointData>
</Piece>


<Piece NumberOfPoints="16" NumberOfCells="9">
	<Points>
		<DataArray type="Float32" NumberOfComponents="3" format="ascii">
		  1.25119377e+00 -2.49251319e-15 0
		  1.21481104e+00 -8.16178512e-02 0
		  1.17023409e+00 -1.59691082e-01 0
		  1.11746291e+00 -2.34219693e-01 0
		  1.55167128e+00 -3.48449716e-15 0
		  1.51410064e+00 -1.14108288e-01 0
		  1.46503599e+00 -2.23881282e-01 0
		  1.40447732e+00 -3.29318983e-01 0
		  1.85214878e+00 -4.47369361e-15 0
		  1.81339025e+00 -1.46598725e-01 0
		  1.75983790e+00 -2.88071483e-01 0
		  1.69149173e+00 -4.24418274e-01 0
		  2.15262628e+00 -5.46289006e-15 0
		  2.11267985e+00 -1.79089161e-01 0
		  2.05463981e+00 -3.52261683e-01 0
		  1.97850614e+00 -5.19517564e-01 0
		</DataArray>
	</Points>
	<Cells>
		<DataArray type="Int32" Name="connectivity" format="ascii">
		   0   1   5   4
		   1   2   6   5
		   2   3   7   6
		   4   5   9   8
		   5   6  10   9
		   6   7  11  10
		   8   9  13  12
		   9  10  14  13
		  10  11  15  14
		</DataArray>
		<DataArray type="Int32" Name="offsets" format="ascii">
		   4   8  12  16  20  24  28  32  36
		</DataArray>
		<DataArray type="UInt8" Name="types" format="ascii">
		   9   9   9   9   9   9   9   9   9
		</DataArray>
	</Cells>
	<PointData Scalars="Scalars" Vectors="Vectors">
		<DataArray type="Int32" Name="index" format="ascii">
		   1   1   1   1   1   1   1   1
		   1   1   1   1   1   1   1   1
		</DataArray>
		<DataArray type="Int32" Name="p_ref" format="ascii">
		   3   3   3   3   3   3   3   3
		   3   3   3   3   3   3   3   3
		</DataArray>
		<DataArray type="Int32" Name="ml" format="ascii">
		   0   0   0   0   0   0   0   0
		   0   0   0   0   0   0   0   0
		</DataArray>
		<DataArray type="Float32" Name="rho" format="ascii">
		  9.98228321e-01  9.99807102e-01  9.99930715e-01  1.00071351e+00  9.98559842e-01  9.99845147e-01  1.00010462e+00  1.00028123e+00
		  9.98882327e-01  9.99873306e-01  1.00025296e+00  9.99984541e-01  9.98967790e-01  9.99922200e-01  1.00021251e+00  9.99660366e-01
		</DataArray>
		<DataArray type="Float32" Name="velocity" NumberOfComponents="3" format="ascii">
		  8.38214131e-02 -6.20369334e-04 0
		  1.02355118e-01 -1.32858426e-03 0
		  1.09858791e-01 -8.54346326e-04 0
		  1.22751470e-01  9.35811451e-05 0
		  8.79804635e-02 -8.48319393e-04 0
		  1.05558907e-01 -1.04258071e-03 0
		  1.19244255e-01 -1.00807882e-03 0
		  1.27279891e-01 -1.57768364e-03 0
		  8.70610930e-02 -9.88600316e-04 0
		  1.10530223e-01 -8.54845293e-04 0
		  1.23846830e-01 -7.58399862e-04 0
		  1.22482577e-01 -1.25706102e-03 0
		  8.50665041e-02 -9.32595653e-04 0
		  1.15248794e-01 -7.21972596e-04 0
		  1.24634403e-01 -8.83586265e-04 0
		  1.16287682e-01 -6.20721634e-04 0
		</DataArray>
		<DataArray type="Float32" Name="p" format="ascii">
		  9.99443690e-01  1.00033183e+00  9.99870501e-01  1.00090508e+00  9.99847618e-01  1.00010301e+00  9.99973523e-01  1.00016796e+00
		  1.00019392e+00  9.99959261e-01  1.00011782e+00  9.99897393e-01  1.00021252e+00  9.99895972e-01  1.00009269e+00  9.99605047e-01
		</DataArray>
		<DataArray type="Float32" Name="s" format="ascii">
		  1.92608565e-03  6.01862476e-04 -3.25060879e-05 -9.38890285e-05  1.86528132e-03  3.19814061e-04 -1.72932440e-04 -2.25727957e-04
		  1.75951514e-03  1.36643122e-04 -2.36295520e-04 -8.09695046e-05  1.65834181e-03  4.89119372e-06 -2.04798108e-04  8.05363889e-05
		</DataArray>
		<DataArray type="Float32" Name="mach" format="ascii">
		  7.08008762e-02  8.64904571e-02  9.28532279e-02  1.03734028e-01  7.43126169e-02  8.92064081e-02  1.00789997e-01  1.07585497e-01
		  7.35365338e-02  9.34138665e-02  1.04678710e-01  1.03526634e-01  7.18538865e-02  9.74061971e-02  1.05344253e-01  9.82851490e-02
		</DataArray>
		<DataArray type="Float32" Name="rhs_rho" format="ascii">
		 -8.64673193e-09 -6.20906982e-10 -2.87284619e-08 -2.96085593e-08 -5.23960012e-09 -1.43012229e-08 -3.96344834e-08  1.95806476e-08
		  4.68739720e-09 -1.63395641e-08 -1.54134890e-08  3.26556835e-08  2.02179579e-09 -3.12530735e-09  1.76823317e-09  5.44294794e-09
		</DataArray>
		<DataArray type="Float32" Name="rhs_velocity" NumberOfComponents="3" format="ascii">
		 -2.17185590e-09  3.41358429e-10 0
		  2.18669077e-10 -1.49653323e-10 0
		 -8.69816404e-09  1.36472005e-09 0
		 -1.45712562e-08  2.82178368e-09 0
		 -2.56452290e-09 -2.47817081e-10 0
		 -2.41546878e-09  3.78294443e-11 0
		 -9.75806964e-09 -5.15716089e-10 0
		  8.97795899e-09  3.20365187e-10 0
		  2.47941148e-10 -3.07158390e-11 0
		 -3.30976423e-09 -8.89767150e-12 0
		 -4.61617620e-09 -4.10924893e-11 0
		  8.77941060e-09  1.19063362e-12 0
		  7.85353036e-10 -1.44531244e-11 0
		 -6.62358743e-10 -2.83779280e-11 0
		  1.63793895e-09 -1.37043278e-10 0
		  1.84853677e-09  6.85243167e-12 0
		</DataArray>
		<DataArray type="Float32" Name="rhs_E" format="ascii">
		 -3.05169922e-08 -2.03112122e-09 -1.01270986e-07 -1.04998546e-07 -1.86388676e-08 -5.00538165e-08 -1.39396406e-07  6.93357907e-08
		  1.63439733e-08 -5.73241365e-08 -5.43648032e-08  1.14837100e-07  7.11546550e-09 -1.09561209e-08  6.32930263e-09  1.92749006e-08
		</DataArray>
	</PointData>
</Piece>


<Piece NumberOfPoints="16" NumberOfCells="9">
	<Points>
		<DataArray type="Float32" NumberOfComponents="3" format="ascii">
		  2.15262628e+00 -5.45870245e-15 0
		  2.11267985e+00 -1.79089161e-01 0
		  2.05463981e+00 -3.52261683e-01 0
		  1.97850614e+00 -5.19517564e-01 0
		  2.51319929e+00 -6.65034748e-15 0
		  2.47182738e+00 -2.18077685e-01 0
		  2.40840209e+00 -4.29289923e-01 0
		  2.32292343e+00 -6.33636712e-01 0
		  2.87377229e+00 -7.83733962e-15 0
		  2.83097490e+00 -2.57066209e-01 0
		  2.76216438e+00 -5.06318163e-01 0
		  2.66734072e+00 -7.47755860e-01 0
		  3.23434529e+00 -9.02433176e-15 0
		  3.19012243e+00 -2.96054733e-01 0
		  3.11592667e+00 -5.83346402e-01 0
		  3.01175801e+00 -8.61875008e-01 0
		</DataArray>
	</Points>
	<Cells>
		<DataArray type="Int32" Name="connectivity" format="ascii">
		   0   1   5   4
		   1   2   6   5
		   2   3   7   6
		   4   5   9   8
		   5   6  10   9
		   6   7  11  10
		   8   9  13  12
		   9  10  14  13
		  10  11  15  14
		</DataArray>
		<DataArray type="Int32" Name="offsets" format="ascii">
		   4   8  12  16  20  24  28  32  36
		</DataArray>
		<DataArray type="UInt8" Name="types" format="ascii">
		   9   9   9   9   9   9   9   9   9
		</DataArray>
	</Cells>
	<PointData Scalars="Scalars" Vectors="Vectors">
		<DataArray type="Int32" Name="index" format="ascii">
		   2   2   2   2   2   2   2   2
		   2   2   2   2   2   2   2   2
		</DataArray>
		<DataArray type="Int32" Name="p_ref" format="ascii">
		   3   3   3   3   3   3   3   3
		   3   3   3   3   3   3   3   3
		</DataArray>
		<DataArray type="Int32" Name="ml" format="ascii">
		   0   0   0   0   0   0   0   0
		   0   0   0   0   0   0   0   0
		</DataArray>
		<DataArray type="Float32" Name="rho" format="ascii">
		  9.99018962e-01  9.99923151e-01  1.00027191e+00  9.99710898e-01  9.98914534e-01  1.00004388e+00  1.00009706e+00  9.99865389e-01
		  9.98767711e-01  1.00017237e+00  9.99944338e-01  1.00018573e+00  9.98628166e-01  1.00026690e+00  9.99798713e-01  1.00054080e+00
		</DataArray>
		<DataArray type="Float32" Name="velocity" NumberOfComponents="3" format="ascii">
		  8.50664377e-02 -9.65395193e-04 0
		  1.15264628e-01 -6.35769198e-04 0
		  1.24666274e-01 -8.31802878e-04 0
		  1.15921802e-01 -1.13798185e-03 0
		  8.46624036e-02 -7.34837389e-04 0
		  1.18864123e-01 -5.80427681e-04 0
		  1.22579072e-01 -9.18565494e-04 0
		  1.12184346e-01  2.49100232e-04 0
		  8.68582274e-02 -4.57088916e-04 0
		  1.20320666e-01 -5.05396225e-04 0
		  1.20372547e-01 -9.51164635e-04 0
		  1.13304978e-01  6.34338190e-04 0
		  9.05812058e-02 -1.63663355e-04 0
		  1.20434744e-01 -5.17850824e-04 0
		  1.18973133e-01 -8.56516989e-04 0
		  1.16271922e-01  6.67134678e-04 0
		</DataArray>
		<DataArray type="Float32" Name="p" format="ascii">
		  1.00028061e+00  9.99897735e-01  1.00016862e+00  9.99682025e-01  1.00004564e+00  9.99954811e-01  1.00004806e+00  9.99878924e-01
		  9.99750416e-01  1.00007643e+00  9.99938565e-01  1.00016853e+00  9.99450051e-01  1.00019227e+00  9.99791286e-01  1.00051184e+00
		</DataArray>
		<DataArray type="Float32" Name="s" format="ascii">
		  1.65469294e-03  5.32140016e-06 -2.12020537e-04  8.67760659e-05  1.56611557e-03 -1.06621342e-04 -8.78176153e-05  6.73840580e-05
		  1.47665339e-03 -1.64867061e-04  1.64911801e-05 -9.14870128e-05  1.37178644e-03 -1.81359146e-04  7.30944790e-05 -2.45201907e-04
		</DataArray>
		<DataArray type="Float32" Name="mach" format="ascii">
		  7.18535344e-02  9.74191112e-02  1.05370017e-01  9.79779399e-02  7.15150078e-02  1.00464191e-01  1.03603671e-01  9.48126692e-02
		  7.33735291e-02  1.01695298e-01  1.01736840e-01  9.57625085e-02  7.65237328e-02  1.01790674e-01  1.00553629e-01  9.82707493e-02
		</DataArray>
		<DataArray type="Float32" Name="rhs_rho" format="ascii">
		  3.59265076e-09 -5.84682341e-09  1.24163888e-09  1.55231629e-08  8.95367887e-09 -7.74075316e-09  1.39859814e-08 -2.89221857e-10
		  4.60795185e-09 -2.51529794e-09  1.15676554e-08 -1.39442703e-08  2.84269268e-10 -2.92293731e-10  1.28774621e-09 -3.77774328e-09
		</DataArray>
		<DataArray type="Float32" Name="rhs_velocity" NumberOfComponents="3" format="ascii">
		  5.57832477e-10  3.96439018e-11 0
		 -1.39101569e-09 -4.67749199e-11 0
		 -2.04582703e-10 -4.67430805e-11 0
		  5.59510422e-09 -3.36122080e-10 0
		  3.12499571e-09  3.92345559e-10 0
		 -2.17920375e-09 -1.46364599e-10 0
		  4.34455928e-09  3.40569790e-10 0
		 -2.34220614e-09 -1.56110990e-09 0
		  2.04032077e-09  3.97955475e-10 0
		 -1.02421161e-09 -1.79961248e-10 0
		  3.54186782e-09  2.92840832e-10 0
		 -5.03780390e-09 -1.33523101e-09 0
		  2.36301075e-10  5.97979962e-11 0
		 -1.01855903e-10  1.11489589e-11 0
		  5.02255747e-10  6.13032661e-11 0
		 -1.38525633e-09 -4.93976764e-10 0
		</DataArray>
		<DataArray type="Float32" Name="rhs_E" format="ascii">
		  1.25841671e-08 -2.05405784e-08  4.28339329e-09  5.47852375e-08  3.15129273e-08 -2.72160001e-08  4.91536593e-08 -1.07388734e-09
		  1.62681745e-08 -8.87661978e-09  4.06892243e-08 -4.90417962e-08  1.01942287e-09 -1.03080241e-09  4.54166286e-09 -1.33367736e-08
		</DataArray>
	</PointData>
</Piece>


<Piece NumberOfPoints="16" NumberOfCells="9">
	<Points>
		<DataArray type="Float32" NumberOfComponents="3" format="ascii">
		  3.23434529e+00 -9.01812955e-15 0
		  3.19012243e+00 -2.96054733e-01 0
		  3.11592667e+00 -5.83346402e-01 0
		  3.01175801e+00 -8.61875008e-01 0
		  3.66703289e+00 -1.04493679e-14 0
		  3.62109946e+00 -3.42840962e-01 0
		  3.54044141e+00 -6.75780290e-01 0
		  3.42505876e+00 -9.98817985e-01 0
		  4.09972050e+00 -1.18737148e-14 0
		  4.05207649e+00 -3.89627190e-01 0
		  3.96495616e+00 -7.68214178e-01 0
		  3.83835950e+00 -1.13576096e+00 0
		  4.53240810e+00 -1.32980618e-14 0
		  4.48305352e+00 -4.36413419e-01 0
		  4.38947090e+00 -8.60648066e-01 0
		  4.25166025e+00 -1.27270394e+00 0
		</DataArray>
	</Points>
	<Cells>
		<DataArray type="Int32" Name="connectivity" format="ascii">
		   0   1   5   4
		   1   2   6   5
		   2   3   7   6
		   4   5   9   8
		   5   6  10   9
		   6   7  11  10
		   8   9  13  12
		   9  10  14  13
		  10  11  15  14
		</DataArray>
		<DataArray type="Int32" Name="offsets" format="ascii">
		   4   8  12  16  20  24  28  32  36
		</DataArray>
		<DataArray type="UInt8" Name="types" format="ascii">
		   9   9   9   9   9   9   9   9   9
		</DataArray>
	</Cells>
	<PointData Scalars="Scalars" Vectors="Vectors">
		<DataArray type="Int32" Name="index" format="ascii">
		   3   3   3   3   3   3   3   3
		   3   3   3   3   3   3   3   3
		</DataArray>
		<DataArray type="Int32" Name="p_ref" format="ascii">
		   3   3   3   3   3   3   3   3
		   3   3   3   3   3   3   3   3
		</DataArray>
		<DataArray type="Int32" Name="ml" format="ascii">
		   0   0   0   0   0   0   0   0
		   0   0   0   0   0   0   0   0
		</DataArray>
		<DataArray type="Float32" Name="rho" format="ascii">
		  9.98625594e-01  1.00027639e+00  9.99802816e-01  1.00054131e+00  9.98648722e-01  1.00030423e+00  9.99765282e-01  1.00067093e+00
		  9.98761654e-01  1.00028932e+00  9.99773361e-01  1.00064111e+00  9.98911623e-01  1.00024915e+00  9.99811758e-01  1.00053708e+00
		</DataArray>
		<DataArray type="Float32" Name="velocity" NumberOfComponents="3" format="ascii">
		  9.05489400e-02 -1.53103881e-04 0
		  1.20439470e-01 -5.32003609e-04 0
		  1.18930032e-01 -8.91079043e-04 0
		  1.16373366e-01  8.48853592e-04 0
		  9.50206569e-02  2.82431395e-05 0
		  1.19980047e-01 -5.41685062e-04 0
		  1.18512483e-01 -6.18395896e-04 0
		  1.18934969e-01  2.06309652e-04 0
		  9.83672680e-02  8.44601564e-05 0
		  1.19642147e-01 -5.36738693e-04 0
		  1.18546001e-01 -4.56188214e-04 0
		  1.19610016e-01 -8.86770187e-05 0
		  1.00710189e-01  5.53233325e-05 0
		  1.19490039e-01 -4.95131674e-04 0
		  1.18643064e-01 -3.70870106e-04 0
		  1.19422510e-01 -2.30104051e-04 0
		</DataArray>
		<DataArray type="Float32" Name="p" format="ascii">
		  9.99449130e-01  1.00020395e+00  9.99799793e-01  1.00050612e+00  9.99332152e-01  1.00025564e+00  9.99753739e-01  1.00063847e+00
		  9.99353845e-01  1.00025271e+00  9.99754329e-01  1.00062505e+00  9.99452090e-01  1.00021170e+00  9.99797386e-01  1.00052162e+00
		</DataArray>
		<DataArray type="Float32" Name="s" format="ascii">
		  1.37447043e-03 -1.82968308e-04  7.58578445e-05 -2.51646271e-04  1.22499802e-03 -1.70245996e-04  8.23520478e-05 -3.00719483e-04
		  1.08839502e-03 -1.52309327e-04  7.16292338e-05 -2.72410298e-04  9.76497115e-04 -1.37087204e-04  6.09287817e-05 -2.30228313e-04
		</DataArray>
		<DataArray type="Float32" Name="mach" format="ascii">
		  7.64963957e-02  1.01794610e-01  1.00517196e-01  9.83577916e-02  8.02796508e-02  1.01405143e-01  1.00163271e-01  1.00520177e-01
		  8.31109101e-02  1.01118937e-01  1.00191352e-01  1.01089753e-01  8.50926406e-02  1.00990272e-01  1.00272901e-01  1.00931410e-01
		</DataArray>
		<DataArray type="Float32" Name="rhs_rho" format="ascii">
		  4.23643599e-10  1.53597990e-10  2.62749029e-09 -8.22470182e-09 -1.60311852e-09  8.32595144e-10  1.27574043e-09 -8.14737303e-09
		 -1.67546964e-09  4.73353139e-10 -1.54842620e-10 -2.09302360e-09 -2.29572601e-10  3.15080259e-12  3.04044147e-10 -6.06085727e-10
		</DataArray>
		<DataArray type="Float32" Name="rhs_velocity" NumberOfComponents="3" format="ascii">
		  5.46649320e-10  1.21450803e-10 0
		 -1.20865761e-10 -4.79321686e-11 0
		  1.10344513e-09  8.13786971e-11 0
		 -3.10736181e-09 -4.46526446e-10 0
		 -4.10306768e-10 -2.84008551e-11 0
		  2.36645220e-10 -1.42143366e-11 0
		  2.34391489e-10 -1.12923063e-10 0
		 -1.78721299e-09  1.04114710e-10 0
		 -6.99460297e-10 -1.55843506e-10 0
		  2.88849281e-10  4.65701953e-11 0
		 -3.00809589e-10 -1.76107363e-10 0
		  9.83164250e-11  4.92652305e-10 0
		 -1.54780637e-10 -3.91844877e-11 0
		  4.33521063e-11  1.53319717e-12 0
		 -4.30407341e-11 -5.78225427e-11 0
		  1.47742959e-10  1.82493749e-10 0
		</DataArray>
		<DataArray type="Float32" Name="rhs_E" format="ascii">
		  1.53379323e-09  5.24488198e-10  9.27784850e-09 -2.90018323e-08 -5.59895955e-09  2.91426517e-09  4.50262978e-09 -2.86768421e-08
		 -5.88457880e-09  1.66679518e-09 -5.49832719e-10 -7.35458584e-09 -8.08849831e-10  1.11132543e-11  1.06067331e-09 -2.10416890e-09
		</DataArray>
	</PointData>
</Piece>


<Piece NumberOfPoints="16" NumberOfCells="9">
	<Points>
		<DataArray type="Float32" NumberOfComponents="3" format="ascii">
		  4.53240810e+00 -1.32894421e-14 0
		  4.48305352e+00 -4.36413419e-01 0
		  4.38947090e+00 -8.60648066e-01 0
		  4.25166025e+00 -1.27270394e+00 0
		  5.05163323e+00 -1.50081923e-14 0
		  5.00022596e+00 -4.92556894e-01 0
		  4.89888860e+00 -9.71568732e-01 0
		  4.74762115e+00 -1.43703551e+00 0
		  5.57085836e+00 -1.67173651e-14 0
		  5.51739840e+00 -5.48700369e-01 0
		  5.40830630e+00 -1.08248940e+00 0
		  5.24358205e+00 -1.60136709e+00 0
		  6.09008348e+00 -1.84265379e-14 0
		  6.03457084e+00 -6.04843844e-01 0
		  5.91772399e+00 -1.19341006e+00 0
		  5.73954295e+00 -1.76569866e+00 0
		</DataArray>
	</Points>
	<Cells>
		<DataArray type="Int32" Name="connectivity" format="ascii">
		   0   1   5   4
		   1   2   6   5
		   2   3   7   6
		   4   5   9   8
		   5   6  10   9
		   6   7  11  10
		   8   9  13  12
		   9  10  14  13
		  10  11  15  14
		</DataArray>
		<DataArray type="Int32" Name="offsets" format="ascii">
		   4   8  12  16  20  24  28  32  36
		</DataArray>
		<DataArray type="UInt8" Name="types" format="ascii">
		   9   9   9   9   9   9   9   9   9
		</DataArray>
	</Cells>
	<PointData Scalars="Scalars" Vectors="Vectors">
		<DataArray type="Int32" Name="index" format="ascii">
		   4   4   4   4   4   4   4   4
		   4   4   4   4   4   4   4   4
		</DataArray>
		<DataArray type="Int32" Name="p_ref" format="ascii">
		   3   3   3   3   3   3   3   3
		   3   3   3   3   3   3   3   3
		</DataArray>
		<DataArray type="Int32" Name="ml" format="ascii">
		   0   0   0   0   0   0   0   0
		   0   0   0   0   0   0   0   0
		</DataArray>
		<DataArray type="Float32" Name="rho" format="ascii">
		  9.98908846e-01  1.00025246e+00  9.99806828e-01  1.00054365e+00  9.99040725e-01  1.00021925e+00  9.99833207e-01  1.00046493e+00
		  9.99141023e-01  1.00019550e+00  9.99851120e-01  1.00041322e+00  9.99214808e-01  1.00017843e+00  9.99862641e-01  1.00037807e+00
		</DataArray>
		<DataArray type="Float32" Name="velocity" NumberOfComponents="3" format="ascii">
		  1.00720955e-01  6.06279800e-05 0
		  1.19484250e-01 -4.98826109e-04 0
		  1.18651970e-01 -3.67177401e-04 0
		  1.19408286e-01 -2.44433079e-04 0
		  1.02748890e-01  3.22975464e-05 0
		  1.19415603e-01 -4.40470922e-04 0
		  1.18673042e-01 -3.43315938e-04 0
		  1.19078609e-01 -1.80138360e-04 0
		  1.04335948e-01  2.01046564e-05 0
		  1.19364008e-01 -3.96600140e-04 0
		  1.18654350e-01 -3.20358326e-04 0
		  1.18908891e-01 -1.38864715e-04 0
		  1.05629856e-01  1.83736739e-05 0
		  1.19314614e-01 -3.61305701e-04 0
		  1.18625283e-01 -2.98342045e-04 0
		  1.18833689e-01 -1.09070315e-04 0
		</DataArray>
		<DataArray type="Float32" Name="p" format="ascii">
		  9.99447689e-01  1.00021648e+00  9.99790253e-01  1.00053165e+00  9.99529717e-01  1.00018275e+00  9.99821136e-01  1.00044947e+00
		  9.99587748e-01  1.00015973e+00  9.99842233e-01  1.00039509e+00  9.99623073e-01  1.00014449e+00  9.99855105e-01  1.00035965e+00
		</DataArray>
		<DataArray type="Float32" Name="s" format="ascii">
		  9.75986053e-04 -1.36949641e-04  6.06981182e-05 -2.29397681e-04  8.73236456e-04 -1.24183603e-04  5.46505796e-05 -2.01383430e-04
		  7.90747452e-04 -1.13957180e-04  5.06672194e-05 -1.83375218e-04  7.22702650e-04 -1.05300878e-04  4.74102018e-05 -1.69617056e-04
		</DataArray>
		<DataArray type="Float32" Name="mach" format="ascii">
		  8.51018087e-02  1.00985319e-01  1.00280529e-01  1.00919237e-01  8.68174216e-02  1.00927133e-01  1.00298051e-01  1.00640686e-01
		  8.81602659e-02  1.00883360e-01  1.00282040e-01  1.00497334e-01  8.92552916e-02  1.00841427e-01  1.00257358e-01  1.00433765e-01
		</DataArray>
		<DataArray type="Float32" Name="rhs_rho" format="ascii">
		 -4.61777274e-10  2.99426501e-11 -1.16970564e-11  1.20299505e-10 -7.25243534e-10 -2.72923334e-11  4.14087973e-10 -4.51426371e-10
		 -4.60505367e-10 -4.28326040e-11  5.09706231e-10 -7.79646355e-10 -1.37886099e-10 -4.68632636e-12  1.48489587e-10 -2.75384794e-10
		</DataArray>
		<DataArray type="Float32" Name="rhs_velocity" NumberOfComponents="3" format="ascii">
		 -2.76473687e-10 -7.33555814e-11 0
		  9.48279825e-11  2.42380232e-11 0
		 -1.56149328e-10 -6.95227704e-11 0
		  3.74396884e-10  2.32267646e-10 0
		 -4.82933876e-10 -1.45816725e-10 0
		  1.60774428e-10  4.42467274e-11 0
		 -1.69994377e-10 -1.41216229e-10 0
		  5.10507176e-10  4.67392873e-10 0
		 -3.52334474e-10 -1.14565125e-10 0
		  1.19987450e-10  3.52790196e-11 0
		 -8.46943078e-11 -1.11850899e-10 0
		  2.86376039e-10  3.61200787e-10 0
		 -1.02173907e-10 -3.42051886e-11 0
		  3.63132327e-11  9.91640968e-12 0
		 -2.18977711e-11 -3.35569778e-11 0
		  6.53400143e-11  1.09307401e-10 0
		</DataArray>
		<DataArray type="Float32" Name="rhs_E" format="ascii">
		 -1.62897610e-09  1.08991221e-10 -5.13403285e-11  4.44768896e-10 -2.55606927e-09 -9.10668645e-11  1.43916987e-09 -1.54461610e-09
		 -1.62163579e-09 -1.48022394e-10  1.78088951e-09 -2.71072870e-09 -4.84985778e-10 -1.59480600e-11  5.19468383e-10 -9.61084532e-10
		</DataArray>
	</PointData>
</Piece>


<Piece NumberOfPoints="16" NumberOfCells="9">
	<Points>
		<DataArray type="Float32" NumberOfComponents="3" format="ascii">
		  6.09008348e+00 -1.84150171e-14 0
		  6.03457084e+00 -6.04843844e-01 0
		  5.91772399e+00 -1.19341006e+00 0
		  5.73954295e+00 -1.76569866e+00 0
		  6.71315364e+00 -2.04787817e-14 0
		  6.65517776e+00 -6.72216014e-01 0
		  6.52902523e+00 -1.32651486e+00 0
		  6.33469603e+00 -1.96289655e+00 0
		  7.33622379e+00 -2.25297454e-14 0
		  7.27578469e+00 -7.39588183e-01 0
		  7.14032646e+00 -1.45961966e+00 0
		  6.92984911e+00 -2.16009444e+00 0
		  7.95929394e+00 -2.45807092e-14 0
		  7.89639161e+00 -8.06960353e-01 0
		  7.75162770e+00 -1.59272446e+00 0
		  7.52500219e+00 -2.35729233e+00 0
		</DataArray>
	</Points>
	<Cells>
		<DataArray type="Int32" Name="connectivity" format="ascii">
		   0   1   5   4
		   1   2   6   5
		   2   3   7   6
		   4   5   9   8
		   5   6  10   9
		   6   7  11  10
		   8   9  13  12
		   9  10  14  13
		  10  11  15  14
		</DataArray>
		<DataArray type="Int32" Name="offsets" format="ascii">
		   4   8  12  16  20  24  28  32  36
		</DataArray>
		<DataArray type="UInt8" Name="types" format="ascii">
		   9   9   9   9   9   9   9   9   9
		</DataArray>
	</Cells>
	<PointData Scalars="Scalars" Vectors="Vectors">
		<DataArray type="Int32" Name="index" format="ascii">
		   5   5   5   5   5   5   5   5
		   5   5   5   5   5   5   5   5
		</DataArray>
		<DataArray type="Int32" Name="p_ref" format="ascii">
		   3   3   3   3   3   3   3   3
		   3   3   3   3   3   3   3   3
		</DataArray>
		<DataArray type="Int32" Name="ml" format="ascii">
		   0   0   0   0   0   0   0   0
		   0   0   0   0   0   0   0   0
		</DataArray>
		<DataArray type="Float32" Name="rho" format="ascii">
		  9.99217088e-01  1.00017821e+00  9.99863234e-01  1.00037722e+00  9.99289296e-01  1.00016166e+00  9.99874451e-01  1.00034396e+00
		  9.99349453e-01  1.00014817e+00  9.99883817e-01  1.00031625e+00  9.99398980e-01  1.00013663e+00  9.99891590e-01  1.00029312e+00
		</DataArray>
		<DataArray type="Float32" Name="velocity" NumberOfComponents="3" format="ascii">
		  1.05628849e-01  1.83023286e-05 0
		  1.19314819e-01 -3.62090657e-04 0
		  1.18624844e-01 -2.98379380e-04 0
		  1.18833347e-01 -1.10735794e-04 0
		  1.06902971e-01  1.91028542e-05 0
		  1.19256721e-01 -3.26981241e-04 0
		  1.18592733e-01 -2.70409337e-04 0
		  1.18793201e-01 -9.38111085e-05 0
		  1.07952666e-01  2.15082240e-05 0
		  1.19202236e-01 -2.98214467e-04 0
		  1.18566995e-01 -2.45303038e-04 0
		  1.18774643e-01 -8.22502289e-05 0
		  1.08831927e-01  2.40505509e-05 0
		  1.19152426e-01 -2.73022453e-04 0
		  1.18548353e-01 -2.22430259e-04 0
		  1.18763921e-01 -7.29799348e-05 0
		</DataArray>
		<DataArray type="Float32" Name="p" format="ascii">
		  9.99626148e-01  1.00014419e+00  9.99855931e-01  1.00035850e+00  9.99659527e-01  1.00012993e+00  9.99868101e-01  1.00032590e+00
		  9.99687324e-01  1.00011868e+00  9.99878028e-01  1.00029919e+00  9.99709125e-01  1.00010908e+00  9.99886062e-01  1.00027741e+00
		</DataArray>
		<DataArray type="Float32" Name="s" format="ascii">
		  7.22583176e-04 -1.05292914e-04  4.74062559e-05 -1.69570562e-04  6.54808066e-04 -9.63772932e-05  4.38720815e-05 -1.55617536e-04
		  5.98336817e-04 -8.87488686e-05  4.06860441e-05 -1.43526448e-04  5.50764416e-04 -8.21875903e-05  3.78378871e-05 -1.32930452e-04
		</DataArray>
		<DataArray type="Float32" Name="mach" format="ascii">
		  8.92544046e-02  1.00841606e-01  1.00256975e-01  1.00433492e-01  9.03327702e-02  1.00792303e-01  1.00229732e-01  1.00399517e-01
		  9.12212379e-02  1.00746078e-01  1.00207904e-01  1.00383775e-01  9.19654996e-02  1.00703831e-01  1.00192098e-01  1.00374640e-01
		</DataArray>
		<DataArray type="Float32" Name="rhs_rho" format="ascii">
		 -1.41150847e-10 -1.38801168e-11  1.99958233e-10 -3.56465884e-10 -2.79673659e-10 -3.25173319e-11  5.30072798e-10 -1.04836662e-09
		 -2.02500937e-10 -3.06525717e-11  4.64322361e-10 -9.75250670e-10 -5.54976562e-11 -1.09598352e-11  1.38429153e-10 -2.98112161e-10
		</DataArray>
		<DataArray type="Float32" Name="rhs_velocity" NumberOfComponents="3" format="ascii">
		 -1.17907819e-10 -4.07614265e-11 0
		  4.18239374e-11  1.28263255e-11 0
		 -2.18273522e-11 -3.99931072e-11 0
		  7.85916346e-11  1.28006304e-10 0
		 -2.74087811e-10 -1.03309670e-10 0
		  1.01813767e-10  3.22760765e-11 0
		 -4.33235549e-11 -1.01317099e-10 0