<?xml version="1.0"?>
<VTKFile type="UnstructuredGrid" version="0.1" byte_order="LittleEndian">
<UnstructuredGrid>

<Piece NumberOfPoints="9" NumberOfCells="4">
	<Points>
		<DataArray type="Float32" NumberOfComponents="3" format="ascii">
		  5.00000000e-01  1.00000000e-15 0
		  4.37395996e-01 -7.99381118e-04 0
		  3.74986339e-01 -3.19752447e-03 0
		  6.39657493e-01  1.00000000e-15 0
		  5.74760157e-01 -2.88027591e-02 0
		  5.04665260e-01 -5.78613834e-02 0
		  7.79314986e-01  1.00000000e-15 0
		  7.12124318e-01 -5.68061372e-02 0
		  6.34344182e-01 -1.12525242e-01 0
		</DataArray>
	</Points>
	<Cells>
		<DataArray type="Int32" Name="connectivity" format="ascii">
		   0   1   4   3
		   1   2   5   4
		   3   4   7   6
		   4   5   8   7
		</DataArray>
		<DataArray type="Int32" Name="offsets" format="ascii">
		   4   8  12  16
		</DataArray>
		<DataArray type="UInt8" Name="types" format="ascii">
		   9   9   9   9
		</DataArray>
	</Cells>
	<PointData Scalars="Scalars" Vectors="Vectors">
		<DataArray type="Int32" Name="index" format="ascii">
		   0   0   0   0   0   0   0   0
		   0
		</DataArray>
		<DataArray type="Int32" Name="p_ref" format="ascii">
		   2   2   2   2   2   2   2   2
		   2
		</DataArray>
		<DataArray type="Int32" Name="ml" format="ascii">
		   0   0   0   0   0   0   0   0
		   0
		</DataArray>
		<DataArray type="Float32" Name="rho" format="ascii">
		  1.00153053e+00  1.00107299e+00  1.00006152e+00  9.98101063e-01  1.00029668e+00  9.99994458e-01  9.99976130e-01  1.00048174e+00
		  9.99774282e-01
		</DataArray>
		<DataArray type="Float32" Name="velocity" NumberOfComponents="3" format="ascii">
		  7.52461736e-02 -4.61969915e-03 0
		  8.71242891e-02  1.10560698e-03 0
		  9.11478347e-02  4.77526087e-03 0
		  8.49423853e-02 -2.22250003e-03 0
		  1.00649211e-01 -3.07224535e-03 0
		  1.04749178e-01 -8.94356190e-04 0
		  8.89038205e-02 -2.37081780e-03 0
		  1.07869275e-01 -1.59243187e-03 0
		  1.13445712e-01 -2.83466358e-03 0
		</DataArray>
		<DataArray type="Float32" Name="p" format="ascii">
		  1.00502341e+00  1.00202786e+00  1.00118557e+00  9.99161069e-01  1.00081077e+00  1.00054544e+00  1.00123989e+00  1.00094614e+00
		  9.99851685e-01
		</DataArray>
		<DataArray type="Float32" Name="s" format="ascii">
		  2.86973691e-03  5.24418060e-04  1.09874480e-03  1.82175605e-03  3.95147823e-04  5.53052056e-04  1.27253699e-03  2.71424797e-04
		  1.67713996e-04
		</DataArray>
		<DataArray type="Float32" Name="mach" format="ascii">
		  6.36035504e-02  7.36042972e-02  7.70963118e-02  7.17758838e-02  8.50818679e-02  8.85080605e-02  7.51167033e-02  9.11549569e-02
		  9.59053400e-02
		</DataArray>
		<DataArray type="Float32" Name="rhs_rho" format="ascii">
		  1.00000000e-15  1.00000000e-15  1.00000000e-15  1.00000000e-15  1.00000000e-15  1.00000000e-15  1.00000000e-15  1.00000000e-15
		  1.00000000e-15
		</DataArray>
		<DataArray type="Float32" Name="rhs_velocity" NumberOfComponents="3" format="ascii">
		  1.00000000e-15  1.00000000e-15 0
		  1.00000000e-15  1.00000000e-15 0
		  1.00000000e-15  1.00000000e-15 0
		  1.00000000e-15  1.00000000e-15 0
		  1.00000000e-15  1.00000000e-15 0
		  1.00000000e-15  1.00000000e-15 0
		  1.00000000e-15  1.00000000e-15 0
		  1.00000000e-15  1.00000000e-15 0
		  1.00000000e-15  1.00000000e-15 0
		</DataArray>
		<DataArray type="Float32" Name="rhs_E" format="ascii">
		  1.00000000e-15  1.00000000e-15  1.00000000e-15  1.00000000e-15  1.00000000e-15  1.00000000e-15  1.00000000e-15  1.00000000e-15
		  1.00000000e-15
		</DataArray>
	</PointData>
</Piece>


<Piece NumberOfPoints="9" NumberOfCells="4">
	<Points>
		<DataArray type="Float32" NumberOfComponents="3" format="ascii">
		  7.79314986e-01  1.00000000e-15 0
		  7.12124318e-01 -5.68061372e-02 0
		  6.34344182e-01 -1.12525242e-01 0
		  9.74835462e-01 -1.54566545e-15 0
		  9.04434129e-01 -9.60108634e-02 0
		  8.15894658e-01 -1.89054639e-01 0
		  1.17035594e+00 -2.18760171e-15 0
		  1.09674394e+00 -1.35215590e-01 0
		  9.97445135e-01 -2.65584036e-01 0
		</DataArray>
	</Points>
	<Cells>
		<DataArray type="Int32" Name="connectivity" format="ascii">
		   0   1   4   3
		   1   2   5   4
		   3   4   7   6
		   4   5   8   7
		</DataArray>
		<DataArray type="Int32" Name="offsets" format="ascii">
		   4   8  12  16
		</DataArray>
		<DataArray type="UInt8" Name="types" format="ascii">
		   9   9   9   9
		</DataArray>
	</Cells>
	<PointData Scalars="Scalars" Vectors="Vectors">
		<DataArray type="Int32" Name="index" format="ascii">
		   1   1   1   1   1   1   1   1
		   1
		</DataArray>
		<DataArray type="Int32" Name="p_ref" format="ascii">
		   2   2   2   2   2   2   2   2
		   2
		</DataArray>
		<DataArray type="Int32" Name="ml" format="ascii">
		   0   0   0   0   0   0   0   0
		   0
		</DataArray>
		<DataArray type="Float32" Name="rho" format="ascii">
		  9.99314396e-01  1.00036316e+00  1.00016694e+00  9.99026607e-01  1.00017516e+00  9.99953556e-01  9.99249437e-01  1.00038914e+00
		  9.99938078e-01
		</DataArray>
		<DataArray type="Float32" Name="velocity" NumberOfComponents="3" format="ascii">
		  9.07190355e-02 -2.49650656e-03 0
		  1.08190600e-01 -1.95707281e-03 0
		  1.14827827e-01 -1.74039997e-03 0
		  9.63784867e-02 -1.83221240e-03 0
		  1.13282694e-01 -1.83228175e-03 0
		  1.18106604e-01 -2.16737091e-03 0
		  1.00045916e-01 -1.44822576e-03 0
		  1.15820228e-01 -1.30271172e-03 0
		  1.18459139e-01 -1.91875656e-03 0
		</DataArray>
		<DataArray type="Float32" Name="p" format="ascii">
		  1.00028128e+00  1.00078703e+00  1.00034196e+00  9.99707672e-01  1.00033319e+00  9.99905645e-01  9.99925112e-01  1.00050639e+00
		  9.99957635e-01
		</DataArray>
		<DataArray type="Float32" Name="s" format="ascii">
		  1.24141863e-03  2.78386238e-04  1.08210752e-04  1.07104318e-03  8.79254401e-05 -2.93360653e-05  9.76291197e-04 -3.84303539e-05
		  4.43276955e-05
		</DataArray>
		<DataArray type="Float32" Name="mach" format="ascii">
		  7.66635261e-02  9.14333357e-02  9.70498820e-02  8.14416499e-02  9.57463103e-02  9.98374965e-02  8.45345143e-02  9.78864140e-02
		  1.00128399e-01
		</DataArray>
		<DataArray type="Float32" Name="rhs_rho" format="ascii">
		  1.00000000e-15  1.00000000e-15  1.00000000e-15  1.00000000e-15  1.00000000e-15  1.00000000e-15  1.00000000e-15  1.00000000e-15
		  1.00000000e-15
		</DataArray>
		<DataArray type="Float32" Name="rhs_velocity" NumberOfComponents="3" format="ascii">
		  1.00000000e-15  1.00000000e-15 0
		  1.00000000e-15  1.00000000e-15 0
		  1.00000000e-15  1.00000000e-15 0
		  1.00000000e-15  1.00000000e-15 0
		  1.00000000e-15  1.00000000e-15 0
		  1.00000000e-15  1.00000000e-15 0
		  1.00000000e-15  1.00000000e-15 0
		  1.00000000e-15  1.00000000e-15 0
		  1.00000000e-15  1.00000000e-15 0
		</DataArray>
		<DataArray type="Float32" Name="rhs_E" format="ascii">
		  1.00000000e-15  1.00000000e-15  1.00000000e-15  1.00000000e-15  1.00000000e-15  1.00000000e-15  1.00000000e-15  1.00000000e-15
		  1.00000000e-15
		</DataArray>
	</PointData>
</Piece>


<Piece NumberOfPoints="9" NumberOfCells="4">
	<Points>
		<DataArray type="Float32" NumberOfComponents="3" format="ascii">
		  1.17035594e+00 -2.18625636e-15 0
		  1.09674394e+00 -1.35215590e-01 0
		  9.97445135e-01 -2.65584036e-01 0
		  1.44408461e+00 -3.08631249e-15 0
		  1.36597768e+00 -1.90102207e-01 0
		  1.25161581e+00 -3.72725193e-01 0
		  1.71781328e+00 -3.98502327e-15 0
		  1.63521142e+00 -2.44988825e-01 0
		  1.50578648e+00 -4.79866350e-01 0
		</DataArray>
	</Points>
	<Cells>
		<DataArray type="Int32" Name="connectivity" format="ascii">
		   0   1   4   3
		   1   2   5   4
		   3   4   7   6
		   4   5   8   7
		</DataArray>
		<DataArray type="Int32" Name="offsets" format="ascii">
		   4   8  12  16
		</DataArray>
		<DataArray type="UInt8" Name="types" format="ascii">
		   9   9   9   9
		</DataArray>
	</Cells>
	<PointData Scalars="Scalars" Vectors="Vectors">
		<DataArray type="Int32" Name="index" format="ascii">
		   2   2   2   2   2   2   2   2
		   2
		</DataArray>
		<DataArray type="Int32" Name="p_ref" format="ascii">
		   2   2   2   2   2   2   2   2
		   2
		</DataArray>
		<DataArray type="Int32" Name="ml" format="ascii">
		   0   0   0   0   0   0   0   0
		   0
		</DataArray>
		<DataArray type="Float32" Name="rho" format="ascii">
		  9.99127744e-01  1.00034222e+00  9.99817737e-01  9.99107211e-01  1.00029308e+00  9.99634354e-01  9.99263373e-01  1.00030790e+00
		  9.99613807e-01
		</DataArray>
		<DataArray type="Float32" Name="velocity" NumberOfComponents="3" format="ascii">
		  1.00296626e-01 -1.42753715e-03 0
		  1.15962849e-01 -1.41538013e-03 0
		  1.18370743e-01 -2.21153501e-03 0
		  1.04700281e-01 -1.07384906e-03 0
		  1.17161550e-01 -1.15987933e-03 0
		  1.17676568e-01 -1.68053039e-03 0
		  1.07732782e-01 -8.70232625e-04 0
		  1.17556075e-01 -9.91419402e-04 0
		  1.17336276e-01 -1.35149194e-03 0
		</DataArray>
		<DataArray type="Float32" Name="p" format="ascii">
		  9.99764764e-01  1.00042754e+00  9.99801953e-01  9.99587668e-01  1.00031305e+00  9.99683625e-01  9.99658943e-01  1.00033703e+00
		  9.99673255e-01
		</DataArray>
		<DataArray type="Float32" Name="s" format="ascii">
		  9.86428207e-04 -5.15701590e-05  5.71238673e-05  8.38046094e-04 -9.72523363e-05  1.95572750e-04  6.90542866e-04 -9.40153783e-05
		  2.13976773e-04
		</DataArray>
		<DataArray type="Float32" Name="mach" format="ascii">
		  8.47476939e-02  9.80096157e-02  1.00059785e-01  8.84712726e-02  9.90234464e-02  9.94625419e-02  9.10357726e-02  9.93551030e-02
		  9.91708820e-02
		</DataArray>
		<DataArray type="Float32" Name="rhs_rho" format="ascii">
		  1.00000000e-15  1.00000000e-15  1.00000000e-15  1.00000000e-15  1.00000000e-15  1.00000000e-15  1.00000000e-15  1.00000000e-15
		  1.00000000e-15
		</DataArray>
		<DataArray type="Float32" Name="rhs_velocity" NumberOfComponents="3" format="ascii">
		  1.00000000e-15  1.00000000e-15 0
		  1.00000000e-15  1.00000000e-15 0
		  1.00000000e-15  1.00000000e-15 0
		  1.00000000e-15  1.00000000e-15 0
		  1.00000000e-15  1.00000000e-15 0
		  1.00000000e-15  1.00000000e-15 0
		  1.00000000e-15  1.00000000e-15 0
		  1.00000000e-15  1.00000000e-15 0
		  1.00000000e-15  1.00000000e-15 0
		</DataArray>
		<DataArray type="Float32" Name="rhs_E" format="ascii">
		  1.01105012e-15  1.00000000e-15  1.00000000e-15  1.00000000e-15  1.00000000e-15  1.00000000e-15  1.00000000e-15  1.00000000e-15
		  1.00000000e-15
		</DataArray>
	</PointData>
</Piece>


<Piece NumberOfPoints="9" NumberOfCells="4">
	<Points>
		<DataArray type="Float32" NumberOfComponents="3" format="ascii">
		  1.71781328e+00 -3.98221682e-15 0
		  1.63521142e+00 -2.44988825e-01 0
		  1.50578648e+00 -4.79866350e-01 0
		  2.10103342e+00 -5.24321836e-15 0
		  2.01213865e+00 -3.21830090e-01 0
		  1.86162542e+00 -6.29863970e-01 0
		  2.48425356e+00 -6.50141345e-15 0
		  2.38906589e+00 -3.98671354e-01 0
		  2.21746436e+00 -7.79861590e-01 0
		</DataArray>
	</Points>
	<Cells>
		<DataArray type="Int32" Name="connectivity" format="ascii">
		   0   1   4   3
		   1   2   5   4
		   3   4   7   6
		   4   5   8   7
		</DataArray>
		<DataArray type="Int32" Name="offsets" format="ascii">
		   4   8  12  16
		</DataArray>
		<DataArray type="UInt8" Name="types" format="ascii">
		   9   9   9   9
		</DataArray>
	</Cells>
	<PointData Scalars="Scalars" Vectors="Vectors">
		<DataArray type="Int32" Name="index" format="ascii">
		   3   3   3   3   3   3   3   3
		   3
		</DataArray>
		<DataArray type="Int32" Name="p_ref" format="ascii">
		   2   2   2   2   2   2   2   2
		   2
		</DataArray>
		<DataArray type="Int32" Name="ml" format="ascii">
		   0   0   0   0   0   0   0   0
		   0
		</DataArray>
		<DataArray type="Float32" Name="rho" format="ascii">
		  9.99258812e-01  1.00028436e+00  9.99613383e-01  9.99374851e-01  1.00021408e+00  9.99681811e-01  9.99510222e-01  1.00018191e+00
		  9.99741900e-01
		</DataArray>
		<DataArray type="Float32" Name="velocity" NumberOfComponents="3" format="ascii">
		  1.07825789e-01 -8.36691857e-04 0
		  1.17569740e-01 -1.07793631e-03 0
		  1.17366484e-01 -1.27650889e-03 0
		  1.10271547e-01 -6.89574728e-04 0
		  1.17835735e-01 -8.78066891e-04 0
		  1.17553433e-01 -1.02508562e-03 0
		  1.11823465e-01 -5.91663428e-04 0
		  1.17976569e-01 -7.55511457e-04 0
		  1.17702741e-01 -8.40919701e-04 0
		</DataArray>
		<DataArray type="Float32" Name="p" format="ascii">
		  9.99646906e-01  1.00030478e+00  9.99673062e-01  9.99660916e-01  1.00022637e+00  9.99717222e-01  9.99752978e-01  1.00019355e+00
		  9.99769704e-01
		</DataArray>
		<DataArray type="Float32" Name="s" format="ascii">
		  6.84891140e-04 -9.33122162e-05  2.14377652e-04  5.36340777e-04 -7.33402408e-05  1.62716427e-04  4.38805475e-04 -6.11210526e-05
		  1.31063358e-04
		</DataArray>
		<DataArray type="Float32" Name="mach" format="ascii">
		  9.11144757e-02  9.93677281e-02  9.91956892e-02  9.31849533e-02  9.95915256e-02  9.93528017e-02  9.44979255e-02  9.97098634e-02
		  9.94781281e-02
		</DataArray>
		<DataArray type="Float32" Name="rhs_rho" format="ascii">
		  1.00000000e-15  1.00000000e-15  1.00000000e-15  1.00000000e-15  1.00000000e-15  1.00000000e-15  1.00000000e-15  1.00000000e-15
		  1.00000000e-15
		</DataArray>
		<DataArray type="Float32" Name="rhs_velocity" NumberOfComponents="3" format="ascii">
		  1.00000000e-15  1.00000000e-15 0
		  1.00000000e-15  1.00000000e-15 0
		  1.00000000e-15  1.00000000e-15 0
		  1.00000000e-15  1.00000000e-15 0
		  1.00000000e-15  1.00000000e-15 0
		  1.00000000e-15  1.00000000e-15 0
		  1.00000000e-15  1.00000000e-15 0
		  1.00000000e-15  1.00000000e-15 0
		  1.00000000e-15  1.00000000e-15 0
		</DataArray>
		<DataArray type="Float32" Name="rhs_E" format="ascii">
		  1.00000000e-15  1.00000000e-15  1.00000000e-15  1.00000000e-15  1.00000000e-15  1.00000000e-15 -1.12800309e-15  1.00000000e-15
		  1.00000000e-15
		</DataArray>
	</PointData>
</Piece>


<Piece NumberOfPoints="9" NumberOfCells="4">
	<Points>
		<DataArray type="Float32" NumberOfComponents="3" format="ascii">
		  2.48425356e+00 -6.49656147e-15 0
		  2.38906589e+00 -3.98671354e-01 0
		  2.21746436e+00 -7.79861590e-01 0
		  3.02076172e+00 -8.26288648e-15 0
		  2.91676399e+00 -5.06249119e-01 0
		  2.71563884e+00 -9.89858246e-01 0
		  3.55726988e+00 -1.00243595e-14 0
		  3.44446209e+00 -6.13826883e-01 0
		  3.21381333e+00 -1.19985490e+00 0
		</DataArray>
	</Points>
	<Cells>
		<DataArray type="Int32" Name="connectivity" format="ascii">
		   0   1   4   3
		   1   2   5   4
		   3   4   7   6
		   4   5   8   7
		</DataArray>
		<DataArray type="Int32" Name="offsets" format="ascii">
		   4   8  12  16
		</DataArray>
		<DataArray type="UInt8" Name="types" format="ascii">
		   9   9   9   9
		</DataArray>
	</Cells>
	<PointData Scalars="Scalars" Vectors="Vectors">
		<DataArray type="Int32" Name="index" format="ascii">
		   4   4   4   4   4   4   4   4
		   4
		</DataArray>
		<DataArray type="Int32" Name="p_ref" format="ascii">
		   2   2   2   2   2   2   2   2
		   2
		</DataArray>
		<DataArray type="Int32" Name="ml" format="ascii">
		   0   0   0   0   0   0   0   0
		   0
		</DataArray>
		<DataArray type="Float32" Name="rho" format="ascii">
		  9.99504968e-01  1.00017845e+00  9.99743378e-01  9.99584262e-01  1.00013870e+00  9.99784051e-01  9.99661350e-01  1.00011890e+00
		  9.99819994e-01
		</DataArray>
		<DataArray type="Float32" Name="velocity" NumberOfComponents="3" format="ascii">
		  1.11865722e-01 -5.77524586e-04 0
		  1.17980452e-01 -7.74879465e-04 0
		  1.17710356e-01 -8.35982913e-04 0
		  1.13189264e-01 -4.82122377e-04 0
		  1.18110937e-01 -6.31384637e-04 0
		  1.17865828e-01 -7.08118557e-04 0
		  1.14085215e-01 -4.12130904e-04 0
		  1.18181440e-01 -5.36997587e-04 0
		  1.17944821e-01 -6.02172642e-04 0
		</DataArray>
		<DataArray type="Float32" Name="p" format="ascii">
		  9.99743070e-01  1.00018894e+00  9.99771084e-01  9.99771073e-01  1.00014332e+00  9.99805469e-01  9.99820732e-01  1.00012302e+00
		  9.99839448e-01
		</DataArray>
		<DataArray type="Float32" Name="s" format="ascii">
		  4.36253237e-04 -6.08838281e-05  1.30374439e-04  3.53200234e-04 -5.08516051e-05  1.07811734e-04  2.94906433e-04 -4.34321185e-05
		  9.14661877e-05
		</DataArray>
		<DataArray type="Float32" Name="mach" format="ascii">
		  9.45337913e-02  9.97133086e-02  9.94845384e-02  9.56543178e-02  9.98231560e-02  9.96155370e-02  9.64125481e-02  9.98823719e-02
		  9.96818966e-02
		</DataArray>
		<DataArray type="Float32" Name="rhs_rho" format="ascii">
		  1.00000000e-15  1.00000000e-15  1.00000000e-15  1.00000000e-15  1.00000000e-15  1.00000000e-15  1.00000000e-15  1.00000000e-15
		  1.00000000e-15
		</DataArray>
		<DataArray type="Float32" Name="rhs_velocity" NumberOfComponents="3" format="ascii">
		  1.00000000e-15  1.00000000e-15 0
		  1.00000000e-15  1.00000000e-15 0
		  1.00000000e-15  1.00000000e-15 0
		  1.00000000e-15  1.00000000e-15 0
		  1.00000000e-15  1.00000000e-15 0
		  1.00000000e-15  1.00000000e-15 0
		  1.17216546e-15  1.00000000e-15 0
		  1.00000000e-15  1.00000000e-15 0
		  1.00000000e-15  1.00000000e-15 0
		</DataArray>
		<DataArray type="Float32" Name="rhs_E" format="ascii">
		  1.45581005e-15  1.00000000e-15  1.00000000e-15  1.00000000e-15  1.00000000e-15  1.02478786e-15 -2.35978884e-15  1.54437715e-15
		 -2.74104739e-15
		</DataArray>
	</PointData>
</Piece>


<Piece NumberOfPoints="9" NumberOfCells="4">
	<Points>
		<DataArray type="Float32" NumberOfComponents="3" format="ascii">
		  3.55726988e+00 -1.00166438e-14 0
		  3.44446209e+00 -6.13826883e-01 0
		  3.21381333e+00 -1.19985490e+00 0
		  4.30838130e+00 -1.24904217e-14 0
		  4.18323942e+00 -7.64435751e-01 0
		  3.91125760e+00 -1.49385022e+00 0
		  5.05949271e+00 -1.49564839e-14 0
		  4.92201674e+00 -9.15044619e-01 0
		  4.60870187e+00 -1.78784553e+00 0
		</DataArray>
	</Points>
	<Cells>
		<DataArray type="Int32" Name="connectivity" format="ascii">
		   0   1   4   3
		   1   2   5   4
		   3   4   7   6
		   4   5   8   7
		</DataArray>
		<DataArray type="Int32" Name="offsets" format="ascii">
		   4   8  12  16
		</DataArray>
		<DataArray type="UInt8" Name="types" format="ascii">
		   9   9   9   9
		</DataArray>
	</Cells>
	<PointData Scalars="Scalars" Vectors="Vectors">
		<DataArray type="Int32" Name="index" format="ascii">
		   5   5   5   5   5   5   5   5
		   5
		</DataArray>
		<DataArray type="Int32" Name="p_ref" format="ascii">
		   2   2   2   2   2   2   2   2
		   2
		</DataArray>
		<DataArray type="Int32" Name="ml" format="ascii">
		   0   0   0   0   0   0   0   0
		   0
		</DataArray>
		<DataArray type="Float32" Name="rho" format="ascii">
		  9.99660818e-01  1.00011724e+00  9.99819468e-01  9.99713447e-01  1.00009354e+00  9.99847975e-01  9.99762804e-01  1.00008019e+00
		  9.99871772e-01
		</DataArray>
		<DataArray type="Float32" Name="velocity" NumberOfComponents="3" format="ascii">
		  1.14104686e-01 -4.02955753e-04 0
		  1.18183038e-01 -5.47764479e-04 0
		  1.17949801e-01 -5.97650481e-04 0
		  1.14916194e-01 -3.34608858e-04 0
		  1.18243618e-01 -4.47288154e-04 0
		  1.18034900e-01 -5.01088188e-04 0
		  1.15480418e-01 -2.83902285e-04 0
		  1.18277018e-01 -3.79108443e-04 0
		  1.18083971e-01 -4.24055252e-04 0
		</DataArray>
		<DataArray type="Float32" Name="p" format="ascii">
		  9.99818542e-01  1.00012087e+00  9.99838342e-01  9.99839044e-01  1.00009486e+00  9.99862673e-01  9.99870250e-01  1.00008142e+00
		  9.99884656e-01
		</DataArray>
		<DataArray type="Float32" Name="s" format="ascii">
		  2.93461696e-04 -4.32695498e-05  9.10964997e-05  2.40262790e-04 -3.60978163e-05  7.55148778e-05  2.02355823e-04 -3.08442020e-05
		  6.41800616e-05
		</DataArray>
		<DataArray type="Float32" Name="mach" format="ascii">
		  9.64290557e-02  9.98837896e-02  9.96861151e-02  9.71162218e-02  9.99347457e-02  9.97578637e-02  9.75938171e-02  9.99627772e-02
		  9.97991708e-02
		</DataArray>
		<DataArray type="Float32" Name="rhs_rho" format="ascii">
		  1.31220646e-15  1.00000000e-15  1.00000000e-15  1.00000000e-15  1.00000000e-15  1.00000000e-15  1.00000000e-15  1.00000000e-15
		  1.00000000e-15
		</DataArray>
		<DataArray type="Float32" Name="rhs_velocity" NumberOfComponents="3" format="ascii">
		  1.00000000e-15 -1.05229841e-15 0
		  1.00000000e-15  1.00000000e-15 0
		  1.00000000e-15 -1.00664789e-15 0
		  1.00000000e-15  1.00000000e-15 0
		  1.00000000e-15  1.00000000e-15 0
		  1.00000000e-15  1.00000000e-15 0
		  1.00000000e-15  1.00000000e-15 0
		  1.00000000e-15  1.00000000e-15 0
		  1.00000000e-15  1.00000000e-15 0
		</DataArray>
		<DataArray type="Float32" Name="rhs_E" format="ascii">
		  3.96987387e-15 -1.97337611e-15  1.00000000e-15  1.00000000e-15  1.00000000e-15  1.00000000e-15 -1.24473312e-15  1.00000000e-15
		 -1.73940498e-15
		</DataArray>
	</PointData>
</Piece>


<Piece NumberOfPoints="9" NumberOfCells="4">
	<Points>
		<DataArray type="Float32" NumberOfComponents="3" format="ascii">
		  5.05949271e+00 -1.49447589e-14 0
		  4.92201674e+00 -9.15044619e-01 0
		  4.60870187e+00 -1.78784553e+00 0
		  6.11104871e+00 -1.84089710e-14 0
		  5.95630501e+00 -1.12589704e+00 0
		  5.58512386e+00 -2.19943897e+00 0
		  7.16260470e+00 -2.18614581e-14 0
		  6.99059328e+00 -1.33674945e+00 0
		  6.56154585e+00 -2.61103242e+00 0
		</DataArray>
	</Points>
	<Cells>
		<DataArray type="Int32" Name="connectivity" format="ascii">
		   0   1   4   3
		   1   2   5   4
		   3   4   7   6
		   4   5   8   7
		</DataArray>
		<DataArray type="Int32" Name="offsets" format="ascii">
		   4   8  12  16
		</DataArray>
		<DataArray type="UInt8" Name="types" format="ascii">
		   9   9   9   9
		</DataArray>
	</Cells>
	<PointData Scalars="Scalars" Vectors="Vectors">
		<DataArray type="Int32" Name="index" format="ascii">
		   6   6   6   6   6   6   6   6
		   6
		</DataArray>
		<DataArray type="Int32" Name="p_ref" format="ascii">
		   2   2   2   2   2   2   2   2
		   2
		</DataArray>
		<DataArray type="Int32" Name="ml" format="ascii">
		   0   0   0   0   0   0   0   0
		   0
		</DataArray>
		<DataArray type="Float32" Name="rho" format="ascii">
		  9.99763000e-01  1.00007938e+00  9.99871786e-01  9.99799043e-01  1.00006424e+00  9.99892069e-01  9.99831907e-01  1.00005506e+00
		  9.99908398e-01
		</DataArray>
		<DataArray type="Float32" Name="velocity" NumberOfComponents="3" format="ascii">
		  1.15491369e-01 -2.77757851e-04 0
		  1.18277537e-01 -3.85418069e-04 0
		  1.18086564e-01 -4.20152528e-04 0
		  1.16015153e-01 -2.28200083e-04 0
		  1.18307445e-01 -3.12037475e-04 0
		  1.18142780e-01 -3.49220154e-04 0
		  1.16388026e-01 -1.91339842e-04 0
		  1.18324496e-01 -2.60147466e-04 0
		  1.18176777e-01 -2.93000338e-04 0
		</DataArray>
		<DataArray type="Float32" Name="p" format="ascii">
		  9.99869638e-01  1.00008041e+00  9.99884421e-01  9.99884861e-01  1.00006424e+00  9.99902059e-01  9.99905490e-01  1.00005508e+00
		  9.99917095e-01
		</DataArray>
		<DataArray type="Float32" Name="s" format="ascii">
		  2.01467993e-04 -3.07293981e-05  6.39260814e-05  1.66221650e-04 -2.56952095e-05  5.31658085e-05  1.40836006e-04 -2.20074562e-05
		  4.53400473e-05
		</DataArray>
		<DataArray type="Float32" Name="mach" format="ascii">
		  9.76030989e-02  9.99632435e-02  9.98013633e-02  9.80466823e-02  9.99883884e-02  9.98488110e-02  9.83623487e-02  1.00002692e-01
		  9.98774783e-02
		</DataArray>
		<DataArray type="Float32" Name="rhs_rho" format="ascii">
		  1.09546815e-15  1.00000000e-15  1.00000000e-15  1.00000000e-15  1.00000000e-15  1.00000000e-15  1.40994212e-15 -1.07723292e-15
		  1.00000000e-15
		</DataArray>
		<DataArray type="Float32" Name="rhs_velocity" NumberOfComponents="3" format="ascii">
		  1.00000000e-15  1.00000000e-15 0
		  1.00000000e-15  1.00000000e-15 0
		  1.00000000e-15  1.00000000e-15 0
		  1.00000000e-15  1.49903179e-15 0
		  1.00000000e-15  1.00000000e-15 0
		  1.00000000e-15  1.00000000e-15 0
		  1.00000000e-15  1.00000000e-15 0
		  1.00000000e-15  1.00000000e-15 0
		  1.00000000e-15  1.00000000e-15 0
		</DataArray>
		<DataArray type="Float32" Name="rhs_E" format="ascii">
		  3.53815345e-15 -1.21409676e-15  2.49946540e-15 -2.98262387e-15  1.72084569e-15 -3.19761763e-15  4.23434564e-15 -3.74027349e-15
		  2.76775913e-15
		</DataArray>
	</PointData>
</Piece>


<Piece NumberOfPoints="9" NumberOfCells="4">
	<Points>
		<DataArray type="Float32" NumberOfComponents="3" format="ascii">
		  7.16260470e+00 -2.18441202e-14 0
		  6.99059328e+00 -1.33674945e+00 0
		  6.56154585e+00 -2.61103242e+00 0
		  8.63478307e+00 -2.66949400e-14 0
		  8.43859683e+00 -1.63194283e+00 0
		  7.92853661e+00 -3.18726323e+00 0
		  1.01069614e+01 -3.15284219e-14 0
		  9.88660039e+00 -1.92713621e+00 0
		  9.29552737e+00 -3.76349404e+00 0
		</DataArray>
	</Points>
	<Cells>
		<DataArray type="Int32" Name="connectivity" format="ascii">
		   0   1   4   3
		   1   2   5   4
		   3   4   7   6
		   4   5   8   7
		</DataArray>
		<DataArray type="Int32" Name="offsets" format="ascii">
		   4   8  12  16
		</DataArray>
		<DataArray type="UInt8" Name="types" format="ascii">
		   9   9   9   9
		</DataArray>
	</Cells>
	<PointData Scalars="Scalars" Vectors="Vectors">
		<DataArray type="Int32" Name="index" format="ascii">
		   7   7   7   7   7   7   7   7
		   7
		</DataArray>
		<DataArray type="Int32" Name="p_ref" format="ascii">
		   2   2   2   2   2   2   2   2
		   2
		</DataArray>
		<DataArray type="Int32" Name="ml" format="ascii">
		   0   0   0   0   0   0   0   0
		   0
		</DataArray>
		<DataArray type="Float32" Name="rho" format="ascii">
		  9.99832514e-01  1.00005460e+00  9.99908377e-01  9.99856838e-01  1.00004463e+00  9.99922754e-01  9.99878678e-01  1.00003826e+00
		  9.99933915e-01
		</DataArray>
		<DataArray type="Float32" Name="velocity" NumberOfComponents="3" format="ascii">
		  1.16395361e-01 -1.85661823e-04 0
		  1.18324392e-01 -2.64912215e-04 0
		  1.18178529e-01 -2.88328587e-04 0
		  1.16747176e-01 -1.48623118e-04 0
		  1.18340402e-01 -2.07907666e-04 0
		  1.18222096e-01 -2.36484496e-04 0
		  1.17012268e-01 -1.23763023e-04 0
		  1.18349698e-01 -1.62972812e-04 0
		  1.18246318e-01 -1.96221337e-04 0
		</DataArray>
		<DataArray type="Float32" Name="p" format="ascii">
		  9.99905772e-01  1.00005451e+00  9.99916896e-01  9.99915891e-01  1.00004410e+00  9.99929558e-01  9.99929087e-01  1.00003780e+00
		  9.99939718e-01
		</DataArray>
		<DataArray type="Float32" Name="s" format="ascii">
		  1.40268424e-04 -2.19293927e-05  4.51708966e-05  1.16328051e-04 -1.83782093e-05  3.77033206e-05  9.89454409e-05 -1.57656158e-05
		  3.22379784e-05
		</DataArray>
		<DataArray type="Float32" Name="mach" format="ascii">
		  9.83685563e-02  1.00002619e-01  9.98789587e-02  9.86665387e-02  1.00016075e-01  9.99157671e-02  9.88909791e-02  1.00023869e-01
		  9.99362267e-02
		</DataArray>
		<DataArray type="Float32" Name="rhs_rho" format="ascii">
		  1.00000000e-15  1.00000000e-15  1.00000000e-15  1.00000000e-15  1.00000000e-15  1.00000000e-15  1.00000000e-15  1.00000000e-15
		  1.00000000e-15
		</DataArray>
		<DataArray type="Float32" Name="rhs_velocity" NumberOfComponents="3" format="ascii">
		  1.79896723e-15 -1.74731832e-15 0
		  1.00000000e-15  1.00000000e-15 0
		  1.00000000e-15  1.00000000e-15 0
		  1.00000000e-15  1.00000000e-15 0
		  1.00000000e-15  1.00000000e-15 0
		  1.00000000e-15 -1.05986229e-15 0
		  1.32812660e-15  1.00000000e-15 0
		  1.00000000e-15 -1.03902932e-15 0
		  1.00000000e-15  3.59691904e-15 0
		</DataArray>
		<DataArray type="Float32" Name="rhs_E" format="ascii">
		  1.00000000e-15  2.01323048e-15  1.00000000e-15 -2.09532207e-15  1.00000000e-15 -1.23534701e-15 -1.48235840e-15  1.22492001e-15
		 -2.97749566e-15
		</DataArray>
	</PointData>
</Piece>


<Piece NumberOfPoints="9" NumberOfCells="4">
	<Points>
		<DataArray type="Float32" NumberOfComponents="3" format="ascii">
		  1.01069614e+01 -3.15032258e-14 0
		  9.88660039e+00 -1.92713621e+00 0
		  9.29552737e+00 -3.76349404e+00 0
		  1.21680111e+01 -3.82952965e-14 0
		  1.19138054e+01 -2.34040694e+00 0
		  1.12093144e+01 -4.57021717e+00 0
		  1.42290609e+01 -4.50621711e-14 0
		  1.39410103e+01 -2.75367767e+00 0
		  1.31231015e+01 -5.37694031e+00 0
		</DataArray>
	</Points>
	<Cells>
		<DataArray type="Int32" Name="connectivity" format="ascii">
		   0   1   4   3
		   1   2   5   4
		   3   4   7   6
		   4   5   8   7
		</DataArray>
		<DataArray type="Int32" Name="offsets" format="ascii">
		   4   8  12  16
		</DataArray>
		<DataArray type="UInt8" Name="types" format="ascii">
		   9   9   9   9
		</DataArray>
	</Cells>
	<PointData Scalars="Scalars" Vectors="Vectors">
		<DataArray type="Int32" Name="index" format="ascii">
		   8   8   8   8   8   8   8   8
		   8
		</DataArray>
		<DataArray type="Int32" Name="p_ref" format="ascii">
		   2   2   2   2   2   2   2   2
		   2
		</DataArray>
		<DataArray type="Int32" Name="ml" format="ascii">
		   0   0   0   0   0   0   0   0
		   0
		</DataArray>
		<DataArray type="Float32" Name="rho" format="ascii">
		  9.99880738e-01  1.00003787e+00  9.99933175e-01  9.99893868e-01  1.00003148e+00  9.99943532e-01  9.99906045e-01  1.00002722e+00
		  9.99950456e-01
		</DataArray>
		<DataArray type="Float32" Name="velocity" NumberOfComponents="3" format="ascii">
		  1.17020678e-01 -1.12182854e-04 0
		  1.18348369e-01 -1.70952628e-04 0
		  1.18248204e-01 -1.83979223e-04 0
		  1.17271224e-01 -8.60261343e-05 0
		  1.18356908e-01 -1.17044584e-04 0
		  1.18298003e-01 -1.52223271e-04 0
		  1.17518790e-01 -8.61235385e-05 0
		  1.18360798e-01 -5.59897024e-05 0
		  1.18306176e-01 -1.31891475e-04 0
		</DataArray>
		<DataArray type="Float32" Name="p" format="ascii">
		  9.99931598e-01  1.00003731e+00  9.99938567e-01  9.99933427e-01  1.00003089e+00  9.99947815e-01  9.99938392e-01  1.00002679e+00
		  9.99953646e-01
		</DataArray>
		<DataArray type="Float32" Name="s" format="ascii">
		  9.85722940e-05 -1.57112464e-05  3.21231623e-05  8.20174749e-05 -1.31835174e-05  2.68708351e-05  6.99322782e-05 -1.13196513e-05
		  2.30074239e-05
		</DataArray>
		<DataArray type="Float32" Name="mach" format="ascii">