<?xml version="1.0"?>
<VTKFile type="UnstructuredGrid" version="0.1" byte_order="LittleEndian">
<UnstructuredGrid>

<Piece NumberOfPoints="9" NumberOfCells="4">
	<Points>
		<DataArray type="Float32" NumberOfComponents="3" format="ascii">
		  7.41951514e-15  1.00528115e-15 0
		  6.73832344e-01  2.26004717e-03 0
		  1.07928519e+00  2.64271404e-02 0
		  7.49400542e-15  1.25000000e-01 0
		  6.73832344e-01  1.27118794e-01 0
		  1.07928519e+00  1.49775444e-01 0
		  7.49400542e-15  2.50000000e-01 0
		  6.73832344e-01  2.51977541e-01 0
		  1.07928519e+00  2.73123748e-01 0
		</DataArray>
	</Points>
	<Cells>
		<DataArray type="Int32" Name="connectivity" format="ascii">
		   0   1   4   3
		   1   2   5   4
		   3   4   7   6
		   4   5   8   7
		</DataArray>
		<DataArray type="Int32" Name="offsets" format="ascii">
		   4   8  12  16
		</DataArray>
		<DataArray type="UInt8" Name="types" format="ascii">
		   9   9   9   9
		</DataArray>
	</Cells>
	<PointData Scalars="Scalars" Vectors="Vectors">
		<DataArray type="Int32" Name="index" format="ascii">
		   0   0   0   0   0   0   0   0
		   0
		</DataArray>
		<DataArray type="Int32" Name="p_ref" format="ascii">
		   2   2   2   2   2   2   2   2
		   2
		</DataArray>
		<DataArray type="Int32" Name="ml" format="ascii">
		   0   0   0   0   0   0   0   0
		   0
		</DataArray>
		<DataArray type="Float32" Name="$\rho$" format="ascii">
		  9.93788614e-01  9.93901860e-01  9.95882615e-01  9.93743087e-01  9.93712515e-01  9.95220109e-01  9.93647470e-01  9.93528482e-01
		  9.94628682e-01
		</DataArray>
		<DataArray type="Float32" Name="$\mathbf{v}$" NumberOfComponents="3" format="ascii">
		  1.42787085e-01  6.91155803e-04 0
		  1.32355628e-01  2.26955934e-03 0
		  1.20687084e-01  1.54783070e-02 0
		  1.41773458e-01  1.05448768e-03 0
		  1.34126155e-01  4.90710143e-03 0
		  1.26337086e-01  1.81435060e-02 0
		  1.41168422e-01  1.26519247e-03 0
		  1.35768302e-01  6.75376458e-03 0
		  1.31043213e-01  1.94698658e-02 0
		</DataArray>
		<DataArray type="Float32" Name="$\mathit{p}$" format="ascii">
		  9.91336017e-01  9.91472897e-01  9.94246001e-01  9.91284938e-01  9.91203088e-01  9.93317727e-01  9.91159139e-01  9.90944298e-01
		  9.92492938e-01
		</DataArray>
		<DataArray type="Float32" Name="$\mathit{s}$" format="ascii">
		  2.13263181e-05 -1.32778154e-07  5.62131220e-06  3.39361996e-05 -5.56458861e-06  3.19228936e-06  4.17368395e-05 -7.38571349e-06
		  4.73199356e-06
		</DataArray>
		<DataArray type="Float32" Name="mach" format="ascii">
		  1.20827715e-01  1.12014324e-01  1.02919248e-01  1.19972231e-01  1.13576628e-01  1.07973028e-01  1.19463560e-01  1.15036745e-01
		  1.12087875e-01
		</DataArray>
		<DataArray type="Float32" Name="rhs_rho" format="ascii">
		  1.00000000e-15  1.00000000e-15  1.00000000e-15  1.00000000e-15  1.00000000e-15  1.00000000e-15  1.00000000e-15  1.00000000e-15
		  1.00000000e-15
		</DataArray>
		<DataArray type="Float32" Name="rhs_velocity" NumberOfComponents="3" format="ascii">
		  1.00000000e-15  1.00000000e-15 0
		  1.00000000e-15  1.00000000e-15 0
		  1.00000000e-15  1.00000000e-15 0
		  1.00000000e-15  1.00000000e-15 0
		  1.00000000e-15  1.00000000e-15 0
		  1.00000000e-15  1.00000000e-15 0
		  1.00000000e-15  1.00000000e-15 0
		  1.00000000e-15  1.00000000e-15 0
		  1.00000000e-15  1.00000000e-15 0
		</DataArray>
		<DataArray type="Float32" Name="rhs_E" format="ascii">
		  1.00000000e-15  1.00000000e-15  1.00000000e-15  1.00000000e-15  1.00000000e-15  1.00000000e-15 -2.02709783e-15  1.00000000e-15
		 -1.07627866e-15
		</DataArray>
	</PointData>
</Piece>


<Piece NumberOfPoints="9" NumberOfCells="4">
	<Points>
		<DataArray type="Float32" NumberOfComponents="3" format="ascii">
		  7.41951514e-15  2.50000000e-01 0
		  6.73832344e-01  2.51977541e-01 0
		  1.07928519e+00  2.73123748e-01 0
		  7.49400542e-15  3.75000000e-01 0
		  6.73832344e-01  3.76836288e-01 0
		  1.07928519e+00  3.96472052e-01 0
		  7.49400542e-15  5.00000000e-01 0
		  6.73832344e-01  5.01695035e-01 0
		  1.07928519e+00  5.19820355e-01 0
		</DataArray>
	</Points>
	<Cells>
		<DataArray type="Int32" Name="connectivity" format="ascii">
		   0   1   4   3
		   1   2   5   4
		   3   4   7   6
		   4   5   8   7
		</DataArray>
		<DataArray type="Int32" Name="offsets" format="ascii">
		   4   8  12  16
		</DataArray>
		<DataArray type="UInt8" Name="types" format="ascii">
		   9   9   9   9
		</DataArray>
	</Cells>
	<PointData Scalars="Scalars" Vectors="Vectors">
		<DataArray type="Int32" Name="index" format="ascii">
		   1   1   1   1   1   1   1   1
		   1
		</DataArray>
		<DataArray type="Int32" Name="p_ref" format="ascii">
		   2   2   2   2   2   2   2   2
		   2
		</DataArray>
		<DataArray type="Int32" Name="ml" format="ascii">
		   0   0   0   0   0   0   0   0
		   0
		</DataArray>
		<DataArray type="Float32" Name="$\rho$" format="ascii">
		  9.93649496e-01  9.93529457e-01  9.94627894e-01  9.93502824e-01  9.93310662e-01  9.94020781e-01  9.93338789e-01  9.93118663e-01
		  9.93516724e-01
		</DataArray>
		<DataArray type="Float32" Name="$\mathbf{v}$" NumberOfComponents="3" format="ascii">
		  1.41197231e-01  1.27146034e-03 0
		  1.35733561e-01  6.77455491e-03 0
		  1.30996937e-01  1.95078570e-02 0
		  1.41073512e-01  1.37342890e-03 0
		  1.37709441e-01  7.95483095e-03 0
		  1.35754566e-01  1.98354860e-02 0
		  1.41184569e-01  1.38805196e-03 0
		  1.39403224e-01  8.55617603e-03 0
		  1.39520163e-01  1.92805185e-02 0
		</DataArray>
		<DataArray type="Float32" Name="$\mathit{p}$" format="ascii">
		  9.91161796e-01  9.90945358e-01  9.92490959e-01  9.90962373e-01  9.90637784e-01  9.91641364e-01  9.90735127e-01  9.90369626e-01
		  9.90937101e-01
		</DataArray>
		<DataArray type="Float32" Name="$\mathit{s}$" format="ascii">
		  4.15626752e-05 -7.68987070e-06  3.84743839e-06  4.70103969e-05 -9.78024746e-06  2.26828827e-06  4.88362161e-05 -9.87465907e-06
		  1.92062972e-06
		</DataArray>
		<DataArray type="Float32" Name="mach" format="ascii">
		  1.19487947e-01  1.15008252e-01  1.12053945e-01  1.19387267e-01  1.16736906e-01  1.16090830e-01  1.19485201e-01  1.18202648e-01
		  1.19191490e-01
		</DataArray>
		<DataArray type="Float32" Name="rhs_rho" format="ascii">
		  1.00000000e-15  1.00000000e-15  1.00000000e-15  1.00000000e-15  1.00000000e-15  1.00000000e-15  1.00000000e-15  1.00000000e-15
		  1.00000000e-15
		</DataArray>
		<DataArray type="Float32" Name="rhs_velocity" NumberOfComponents="3" format="ascii">
		  1.00000000e-15  1.00000000e-15 0
		  1.00000000e-15  1.00000000e-15 0
		  1.00000000e-15  1.00000000e-15 0
		  1.00000000e-15  1.00000000e-15 0
		  1.00000000e-15  1.00000000e-15 0
		  1.00000000e-15  1.00000000e-15 0
		  1.00000000e-15  1.00000000e-15 0
		  1.00000000e-15  1.00000000e-15 0
		  1.00000000e-15  1.00000000e-15 0
		</DataArray>
		<DataArray type="Float32" Name="rhs_E" format="ascii">
		  1.96190280e-15  1.00000000e-15  1.00000000e-15  1.00000000e-15  1.00000000e-15  1.00000000e-15  2.31886292e-15  1.07492653e-15
		  1.00000000e-15
		</DataArray>
	</PointData>
</Piece>


<Piece NumberOfPoints="9" NumberOfCells="4">
	<Points>
		<DataArray type="Float32" NumberOfComponents="3" format="ascii">
		  7.41951514e-15  5.00000000e-01 0
		  6.73832344e-01  5.01695035e-01 0
		  1.07928519e+00  5.19820355e-01 0
		  7.49400542e-15  6.25000000e-01 0
		  6.73832344e-01  6.26553782e-01 0
		  1.07928519e+00  6.43168659e-01 0
		  7.49400542e-15  7.50000000e-01 0
		  6.73832344e-01  7.51412529e-01 0
		  1.07928519e+00  7.66516963e-01 0
		</DataArray>
	</Points>
	<Cells>
		<DataArray type="Int32" Name="connectivity" format="ascii">
		   0   1   4   3
		   1   2   5   4
		   3   4   7   6
		   4   5   8   7
		</DataArray>
		<DataArray type="Int32" Name="offsets" format="ascii">
		   4   8  12  16
		</DataArray>
		<DataArray type="UInt8" Name="types" format="ascii">
		   9   9   9   9
		</DataArray>
	</Cells>
	<PointData Scalars="Scalars" Vectors="Vectors">
		<DataArray type="Int32" Name="index" format="ascii">
		   2   2   2   2   2   2   2   2
		   2
		</DataArray>
		<DataArray type="Int32" Name="p_ref" format="ascii">
		   2   2   2   2   2   2   2   2
		   2
		</DataArray>
		<DataArray type="Int32" Name="ml" format="ascii">
		   0   0   0   0   0   0   0   0
		   0
		</DataArray>
		<DataArray type="Float32" Name="$\rho$" format="ascii">
		  9.93339790e-01  9.93117298e-01  9.93510457e-01  9.93154047e-01  9.92911935e-01  9.93033381e-01  9.92971481e-01  9.92739034e-01
		  9.92649925e-01
		</DataArray>
		<DataArray type="Float32" Name="$\mathbf{v}$" NumberOfComponents="3" format="ascii">
		  1.41172136e-01  1.39328109e-03 0
		  1.39384481e-01  8.57364433e-03 0
		  1.39465893e-01  1.93056770e-02 0
		  1.41557688e-01  1.34237190e-03 0
		  1.41201015e-01  8.72656119e-03 0
		  1.42891580e-01  1.82223542e-02 0
		  1.42069464e-01  1.24528050e-03 0
		  1.42723362e-01  8.51363631e-03 0
		  1.45564237e-01  1.67212895e-02 0
		</DataArray>
		<DataArray type="Float32" Name="$\mathit{p}$" format="ascii">
		  9.90736583e-01  9.90367518e-01  9.90927929e-01  9.90477716e-01  9.90080830e-01  9.90261466e-01  9.90221832e-01  9.89839938e-01
		  9.89725584e-01
		</DataArray>
		<DataArray type="Float32" Name="$\mathit{s}$" format="ascii">
		  4.88951174e-05 -1.00787287e-05  1.49565377e-06  4.93805177e-05 -1.00658678e-05  1.13475049e-06  4.83816245e-05 -9.59064755e-06
		  5.45585277e-07
		</DataArray>
		<DataArray type="Float32" Name="mach" format="ascii">
		  1.19474696e-01  1.18187767e-01  1.19149090e-01  1.19804994e-01  1.19735150e-01  1.21913731e-01  1.20241821e-01  1.21014501e-01
		  1.24016076e-01
		</DataArray>
		<DataArray type="Float32" Name="rhs_rho" format="ascii">
		  1.00000000e-15  1.00000000e-15  1.00000000e-15  1.00000000e-15  1.00000000e-15  1.00000000e-15  1.00000000e-15  1.00000000e-15
		  1.00000000e-15
		</DataArray>
		<DataArray type="Float32" Name="rhs_velocity" NumberOfComponents="3" format="ascii">
		  1.00000000e-15  1.00000000e-15 0
		  1.00000000e-15  1.00000000e-15 0
		  1.00000000e-15  1.00000000e-15 0
		  1.00000000e-15  1.00000000e-15 0
		  1.00000000e-15  1.00000000e-15 0
		  1.00000000e-15  1.00000000e-15 0
		  1.00000000e-15  1.00000000e-15 0
		  1.00000000e-15  1.00000000e-15 0
		  1.00000000e-15  1.00000000e-15 0
		</DataArray>
		<DataArray type="Float32" Name="rhs_E" format="ascii">
		 -1.63087191e-15 -2.32253793e-15  1.00000000e-15  1.33453913e-15  1.00000000e-15  1.00000000e-15 -1.05868685e-15 -1.82200557e-15
		  1.00000000e-15
		</DataArray>
	</PointData>
</Piece>


<Piece NumberOfPoints="9" NumberOfCells="4">
	<Points>
		<DataArray type="Float32" NumberOfComponents="3" format="ascii">
		  7.41951514e-15  7.50000000e-01 0
		  6.73832344e-01  7.51412529e-01 0
		  1.07928519e+00  7.66516963e-01 0
		  7.49400542e-15  8.75000000e-01 0
		  6.73832344e-01  8.76271277e-01 0
		  1.07928519e+00  8.89865266e-01 0
		  7.49400542e-15  1.00000000e+00 0
		  6.73832344e-01  1.00113002e+00 0
		  1.07928519e+00  1.01321357e+00 0
		</DataArray>
	</Points>
	<Cells>
		<DataArray type="Int32" Name="connectivity" format="ascii">
		   0   1   4   3
		   1   2   5   4
		   3   4   7   6
		   4   5   8   7
		</DataArray>
		<DataArray type="Int32" Name="offsets" format="ascii">
		   4   8  12  16
		</DataArray>
		<DataArray type="UInt8" Name="types" format="ascii">
		   9   9   9   9
		</DataArray>
	</Cells>
	<PointData Scalars="Scalars" Vectors="Vectors">
		<DataArray type="Int32" Name="index" format="ascii">
		   3   3   3   3   3   3   3   3
		   3
		</DataArray>
		<DataArray type="Int32" Name="p_ref" format="ascii">
		   2   2   2   2   2   2   2   2
		   2
		</DataArray>
		<DataArray type="Int32" Name="ml" format="ascii">
		   0   0   0   0   0   0   0   0
		   0
		</DataArray>
		<DataArray type="Float32" Name="$\rho$" format="ascii">
		  9.92971775e-01  9.92737019e-01  9.92643863e-01  9.92787436e-01  9.92565112e-01  9.92307495e-01  9.92617946e-01  9.92423175e-01
		  9.92040919e-01
		</DataArray>
		<DataArray type="Float32" Name="$\mathbf{v}$" NumberOfComponents="3" format="ascii">
		  1.42076675e-01  1.24945956e-03 0
		  1.42713779e-01  8.52574529e-03 0
		  1.45547948e-01  1.67340495e-02 0
		  1.42749382e-01  1.12502094e-03 0
		  1.44236372e-01  8.05350188e-03 0
		  1.47810316e-01  1.50312605e-02 0
		  1.43447764e-01  9.83195470e-04 0
		  1.45489905e-01  7.38399968e-03 0
		  1.49566419e-01  1.32145116e-02 0
		</DataArray>
		<DataArray type="Float32" Name="$\mathit{p}$" format="ascii">
		  9.90222319e-01  9.89837002e-01  9.89716959e-01  9.89963601e-01  9.89597655e-01  9.89247591e-01  9.89725554e-01  9.89399949e-01
		  9.88875220e-01
		</DataArray>
		<DataArray type="Float32" Name="$\mathit{s}$" format="ascii">
		  4.84587967e-05 -9.71506884e-06  3.80567372e-07  4.70770350e-05 -9.09723656e-06  5.09913001e-07  4.56174182e-05 -8.68769225e-06
		  1.69760906e-07
		</DataArray>
		<DataArray type="Float32" Name="mach" format="ascii">
		  1.20247944e-01  1.21007071e-01  1.24003773e-01  1.20820945e-01  1.22274775e-01  1.25760846e-01  1.21415361e-01  1.23307634e-01
		  1.27102068e-01
		</DataArray>
		<DataArray type="Float32" Name="rhs_rho" format="ascii">
		  1.00000000e-15  1.00000000e-15  1.00000000e-15  1.00000000e-15  1.00000000e-15  1.00000000e-15  1.00000000e-15  1.00000000e-15
		  1.00000000e-15
		</DataArray>
		<DataArray type="Float32" Name="rhs_velocity" NumberOfComponents="3" format="ascii">
		  1.00000000e-15  1.00000000e-15 0
		  1.00000000e-15  1.00000000e-15 0
		  1.00000000e-15  1.00000000e-15 0
		  1.00000000e-15  1.00000000e-15 0
		  1.00000000e-15  1.00000000e-15 0
		  1.00000000e-15  1.00000000e-15 0
		  1.00000000e-15  1.00000000e-15 0
		  1.00000000e-15  1.00000000e-15 0
		  1.00000000e-15  1.00000000e-15 0
		</DataArray>
		<DataArray type="Float32" Name="rhs_E" format="ascii">
		  1.00000000e-15  1.35354298e-15  1.00000000e-15  1.00000000e-15  1.00000000e-15  1.00000000e-15  1.00000000e-15  1.00000000e-15
		  1.00000000e-15
		</DataArray>
	</PointData>
</Piece>


<Piece NumberOfPoints="9" NumberOfCells="4">
	<Points>
		<DataArray type="Float32" NumberOfComponents="3" format="ascii">
		  7.41951514e-15  1.00000000e+00 0
		  6.73832344e-01  1.00113002e+00 0
		  1.07928519e+00  1.01321357e+00 0
		  7.49400542e-15  1.12500000e+00 0
		  6.73832344e-01  1.12598877e+00 0
		  1.07928519e+00  1.13656187e+00 0
		  7.49400542e-15  1.25000000e+00 0
		  6.73832344e-01  1.25084752e+00 0
		  1.07928519e+00  1.25991018e+00 0
		</DataArray>
	</Points>
	<Cells>
		<DataArray type="Int32" Name="connectivity" format="ascii">
		   0   1   4   3
		   1   2   5   4
		   3   4   7   6
		   4   5   8   7
		</DataArray>
		<DataArray type="Int32" Name="offsets" format="ascii">
		   4   8  12  16
		</DataArray>
		<DataArray type="UInt8" Name="types" format="ascii">
		   9   9   9   9
		</DataArray>
	</Cells>
	<PointData Scalars="Scalars" Vectors="Vectors">
		<DataArray type="Int32" Name="index" format="ascii">
		   4   4   4   4   4   4   4   4
		   4
		</DataArray>
		<DataArray type="Int32" Name="p_ref" format="ascii">
		   2   2   2   2   2   2   2   2
		   2
		</DataArray>
		<DataArray type="Int32" Name="ml" format="ascii">
		   0   0   0   0   0   0   0   0
		   0
		</DataArray>
		<DataArray type="Float32" Name="$\rho$" format="ascii">
		  9.92617777e-01  9.92421309e-01  9.92036889e-01  9.92459186e-01  9.92288703e-01  9.91818902e-01  9.92320881e-01  9.92180811e-01
		  9.91647282e-01
		</DataArray>
		<DataArray type="Float32" Name="$\mathbf{v}$" NumberOfComponents="3" format="ascii">
		  1.43457981e-01  9.85906442e-04 0
		  1.45488664e-01  7.39115199e-03 0
		  1.49562746e-01  1.32179856e-02 0
		  1.44227525e-01  8.40603715e-04 0
		  1.46673890e-01  6.59712632e-03 0
		  1.50978212e-01  1.13903551e-02 0
		  1.44944993e-01  6.96221331e-04 0
		  1.47635420e-01  5.71704564e-03 0
		  1.52080853e-01  9.59064907e-03 0
		</DataArray>
		<DataArray type="Float32" Name="$\mathit{p}$" format="ascii">
		  9.89725356e-01  9.89397292e-01  9.88869537e-01  9.89502670e-01  9.89212706e-01  9.88565504e-01  9.89308680e-01  9.89062334e-01
		  9.88325911e-01
		</DataArray>
		<DataArray type="Float32" Name="$\mathit{s}$" format="ascii">
		  4.56571974e-05 -8.74013392e-06  1.11021044e-07  4.43309772e-05 -8.24222951e-06  2.73235083e-07  4.33755289e-05 -8.03510576e-06
		  1.49635637e-07
		</DataArray>
		<DataArray type="Float32" Name="mach" format="ascii">
		  1.21424026e-01  1.23306942e-01  1.27099336e-01  1.22078547e-01  1.24280167e-01  1.28172888e-01  1.22688644e-01  1.25064919e-01
		  1.29003327e-01
		</DataArray>
		<DataArray type="Float32" Name="rhs_rho" format="ascii">
		  1.00000000e-15  1.00000000e-15  1.00000000e-15  1.00000000e-15  1.00000000e-15  1.00000000e-15  1.00000000e-15  1.00000000e-15
		  1.00000000e-15
		</DataArray>
		<DataArray type="Float32" Name="rhs_velocity" NumberOfComponents="3" format="ascii">
		  1.00000000e-15  1.00000000e-15 0
		  1.00000000e-15  1.00000000e-15 0
		  1.00000000e-15  1.00000000e-15 0
		  1.00000000e-15  1.00000000e-15 0
		  1.00000000e-15  1.00000000e-15 0
		  1.00000000e-15  1.00000000e-15 0
		  1.00000000e-15  1.00000000e-15 0
		  1.00000000e-15  1.00000000e-15 0
		  1.00000000e-15  1.00000000e-15 0
		</DataArray>
		<DataArray type="Float32" Name="rhs_E" format="ascii">
		 -1.35010665e-15  1.00000000e-15  1.00000000e-15  1.00000000e-15  1.00000000e-15  1.00000000e-15  1.00000000e-15 -1.47079730e-15
		  1.00000000e-15
		</DataArray>
	</PointData>
</Piece>


<Piece NumberOfPoints="9" NumberOfCells="4">
	<Points>
		<DataArray type="Float32" NumberOfComponents="3" format="ascii">
		  7.41951514e-15  1.25000000e+00 0
		  6.73832344e-01  1.25084752e+00 0
		  1.07928519e+00  1.25991018e+00 0
		  7.49400542e-15  1.37500000e+00 0
		  6.73832344e-01  1.37570626e+00 0
		  1.07928519e+00  1.38325848e+00 0
		  7.49400542e-15  1.50000000e+00 0
		  6.73832344e-01  1.50056501e+00 0
		  1.07928519e+00  1.50660679e+00 0
		</DataArray>
	</Points>
	<Cells>
		<DataArray type="Int32" Name="connectivity" format="ascii">
		   0   1   4   3
		   1   2   5   4
		   3   4   7   6
		   4   5   8   7
		</DataArray>
		<DataArray type="Int32" Name="offsets" format="ascii">
		   4   8  12  16
		</DataArray>
		<DataArray type="UInt8" Name="types" format="ascii">
		   9   9   9   9
		</DataArray>
	</Cells>
	<PointData Scalars="Scalars" Vectors="Vectors">
		<DataArray type="Int32" Name="index" format="ascii">
		   5   5   5   5   5   5   5   5
		   5
		</DataArray>
		<DataArray type="Int32" Name="p_ref" format="ascii">
		   2   2   2   2   2   2   2   2
		   2
		</DataArray>
		<DataArray type="Int32" Name="ml" format="ascii">
		   0   0   0   0   0   0   0   0
		   0
		</DataArray>
		<DataArray type="Float32" Name="$\rho$" format="ascii">
		  9.92320571e-01  9.92179461e-01  9.91645101e-01  9.92200234e-01  9.92085363e-01  9.91514409e-01  9.92101869e-01  9.92011290e-01
		  9.91412858e-01
		</DataArray>
		<DataArray type="Float32" Name="$\mathbf{v}$" NumberOfComponents="3" format="ascii">
		  1.44953047e-01  6.97568702e-04 0
		  1.47639259e-01  5.72043957e-03 0
		  1.52083522e-01  9.58940670e-03 0
		  1.45650583e-01  5.61259383e-04 0
		  1.48489725e-01  4.79504478e-03 0
		  1.52929630e-01  7.85050331e-03 0
		  1.46241636e-01  4.33313446e-04 0
		  1.49156495e-01  3.84336398e-03 0
		  1.53585427e-01  6.17822981e-03 0
		</DataArray>
		<DataArray type="Float32" Name="$\mathit{p}$" format="ascii">
		  9.89308249e-01  9.89060441e-01  9.88322856e-01  9.89139562e-01  9.88929367e-01  9.88140571e-01  9.89001865e-01  9.88826074e-01
		  9.87998884e-01
		</DataArray>
		<DataArray type="Float32" Name="$\mathit{s}$" format="ascii">
		  4.33753538e-05 -8.04472908e-06  1.38424610e-07  4.26373110e-05 -7.79404565e-06  2.05230794e-07  4.22184048e-05 -7.71615392e-06
		  2.02939968e-07
		</DataArray>
		<DataArray type="Float32" Name="mach" format="ascii">
		  1.22695474e-01  1.25068312e-01  1.29005573e-01  1.23288426e-01  1.25762334e-01  1.29640065e-01  1.23790838e-01  1.26305026e-01
		  1.30132610e-01
		</DataArray>
		<DataArray type="Float32" Name="rhs_rho" format="ascii">
		  1.00000000e-15  1.00000000e-15  1.00000000e-15  1.00000000e-15  1.00000000e-15  1.00000000e-15  1.00000000e-15  1.00000000e-15
		  1.00000000e-15
		</DataArray>
		<DataArray type="Float32" Name="rhs_velocity" NumberOfComponents="3" format="ascii">
		  1.00000000e-15  1.00000000e-15 0
		  1.00000000e-15  1.00000000e-15 0
		  1.00000000e-15  1.00000000e-15 0
		  1.00000000e-15  1.00000000e-15 0
		  1.00000000e-15  1.00000000e-15 0
		  1.00000000e-15  1.00000000e-15 0
		  1.00000000e-15  1.00000000e-15 0
		  1.00000000e-15  1.00000000e-15 0
		  1.00000000e-15  1.00000000e-15 0
		</DataArray>
		<DataArray type="Float32" Name="rhs_E" format="ascii">
		  1.75396510e-15  1.42550389e-15  1.00000000e-15  1.00000000e-15  1.00000000e-15  1.00000000e-15  1.00000000e-15  1.02407022e-15
		  1.00000000e-15
		</DataArray>
	</PointData>
</Piece>


<Piece NumberOfPoints="9" NumberOfCells="4">
	<Points>
		<DataArray type="Float32" NumberOfComponents="3" format="ascii">
		  7.41951514e-15  1.50000000e+00 0
		  6.73832344e-01  1.50056501e+00 0
		  1.07928519e+00  1.50660679e+00 0
		  7.49400542e-15  1.62500000e+00 0
		  6.73832344e-01  1.62542376e+00 0
		  1.07928519e+00  1.62995509e+00 0
		  7.49400542e-15  1.75000000e+00 0
		  6.73832344e-01  1.75028251e+00 0
		  1.07928519e+00  1.75330339e+00 0
		</DataArray>
	</Points>
	<Cells>
		<DataArray type="Int32" Name="connectivity" format="ascii">
		   0   1   4   3
		   1   2   5   4
		   3   4   7   6
		   4   5   8   7
		</DataArray>
		<DataArray type="Int32" Name="offsets" format="ascii">
		   4   8  12  16
		</DataArray>
		<DataArray type="UInt8" Name="types" format="ascii">
		   9   9   9   9
		</DataArray>
	</Cells>
	<PointData Scalars="Scalars" Vectors="Vectors">
		<DataArray type="Int32" Name="index" format="ascii">
		   6   6   6   6   6   6   6   6
		   6
		</DataArray>
		<DataArray type="Int32" Name="p_ref" format="ascii">
		   2   2   2   2   2   2   2   2
		   2
		</DataArray>
		<DataArray type="Int32" Name="ml" format="ascii">
		   0   0   0   0   0   0   0   0
		   0
		</DataArray>
		<DataArray type="Float32" Name="$\rho$" format="ascii">
		  9.92101603e-01  9.92010455e-01  9.91411795e-01  9.92024437e-01  9.91952443e-01  9.91342244e-01  9.91969218e-01  9.91911297e-01
		  9.91291171e-01
		</DataArray>
		<DataArray type="Float32" Name="$\mathbf{v}$" NumberOfComponents="3" format="ascii">
		  1.46245946e-01  4.33681259e-04 0
		  1.49161770e-01  3.84431162e-03 0
		  1.53590605e-01  6.17506797e-03 0
		  1.46745496e-01  3.15658191e-04 0
		  1.49690655e-01  2.88404826e-03 0
		  1.54047729e-01  4.56797982e-03 0
		  1.47105925e-01  2.05467967e-04 0
		  1.50063604e-01  1.92134214e-03 0
		  1.54384125e-01  3.01503667e-03 0
		</DataArray>
		<DataArray type="Float32" Name="$\mathit{p}$" format="ascii">
		  9.89001475e-01  9.88824914e-01  9.87997409e-01  9.88893495e-01  9.88744043e-01  9.87900355e-01  9.88816311e-01  9.88686653e-01
		  9.87829159e-01
		</DataArray>
		<DataArray type="Float32" Name="$\mathit{s}$" format="ascii">
		  4.22002414e-05 -7.71055120e-06  2.11764633e-07  4.19109400e-05 -7.62530981e-06  1.91433939e-07  4.17867573e-05 -7.59745134e-06
		  2.49086655e-07
		</DataArray>
		<DataArray type="Float32" Name="mach" format="ascii">
		  1.23794495e-01  1.26309531e-01  1.30136909e-01  1.24219047e-01  1.26740305e-01  1.30478024e-01  1.24525375e-01  1.27043962e-01
		  1.30731765e-01
		</DataArray>
		<DataArray type="Float32" Name="rhs_rho" format="ascii">
		  1.00000000e-15  1.00000000e-15  1.00000000e-15  1.00000000e-15  1.00000000e-15  1.00000000e-15  1.00000000e-15  1.00000000e-15
		  1.00000000e-15
		</DataArray>
		<DataArray type="Float32" Name="rhs_velocity" NumberOfComponents="3" format="ascii">
		  1.00000000e-15  1.04825324e-15 0
		  1.00000000e-15  1.00000000e-15 0
		  1.00000000e-15  1.00000000e-15 0
		  1.00000000e-15  1.00000000e-15 0
		  1.00000000e-15  1.00000000e-15 0
		  1.00000000e-15  1.00000000e-15 0
		  1.00000000e-15  1.00000000e-15 0
		  1.00000000e-15  1.00000000e-15 0
		  1.00000000e-15  1.00000000e-15 0
		</DataArray>
		<DataArray type="Float32" Name="rhs_E" format="ascii">
		  1.73612741e-15 -1.07623208e-15  1.00000000e-15 -2.14678093e-15  1.00000000e-15  1.00000000e-15  1.65110249e-15 -1.30151363e-15
		  1.00000000e-15
		</DataArray>
	</PointData>
</Piece>


<Piece NumberOfPoints="9" NumberOfCells="4">
	<Points>
		<DataArray type="Float32" NumberOfComponents="3" format="ascii">
		  7.41951514e-15  1.75000000e+00 0
		  6.73832344e-01  1.75028251e+00 0
		  1.07928519e+00  1.75330339e+00 0
		  7.49400542e-15  1.87500000e+00 0
		  6.73832344e-01  1.87514125e+00 0
		  1.07928519e+00  1.87665170e+00 0
		  7.49400542e-15  2.00000000e+00 0
		  6.73832344e-01  2.00000000e+00 0
		  1.07928519e+00  2.00000000e+00 0
		</DataArray>
	</Points>
	<Cells>
		<DataArray type="Int32" Name="connectivity" format="ascii">
		   0   1   4   3
		   1   2   5   4
		   3   4   7   6
		   4   5   8   7
		</DataArray>
		<DataArray type="Int32" Name="offsets" format="ascii">
		   4   8  12  16
		</DataArray>
		<DataArray type="UInt8" Name="types" format="ascii">
		   9   9   9   9
		</DataArray>
	</Cells>
	<PointData Scalars="Scalars" Vectors="Vectors">
		<DataArray type="Int32" Name="index" format="ascii">
		   7   7   7   7   7   7   7   7
		   7
		</DataArray>
		<DataArray type="Int32" Name="p_ref" format="ascii">
		   2   2   2   2   2   2   2   2
		   2
		</DataArray>
		<DataArray type="Int32" Name="ml" format="ascii">
		   0   0   0   0   0   0   0   0
		   0
		</DataArray>
		<DataArray type="Float32" Name="$\rho$" format="ascii">
		  9.91969068e-01  9.91910898e-01  9.91290748e-01  9.91936191e-01  9.91886875e-01  9.91265452e-01  9.91924896e-01  9.91878157e-01
		  9.91253648e-01
		</DataArray>
		<DataArray type="Float32" Name="$\mathbf{v}$" NumberOfComponents="3" format="ascii">
		  1.47107324e-01  2.05269472e-04 0
		  1.50067221e-01  1.92093559e-03 0
		  1.54388103e-01  3.01117600e-03 0
		  1.47334713e-01  1.01211465e-04 0
		  1.50287548e-01  9.60023638e-04 0
		  1.54556461e-01  1.49660093e-03 0
		  1.47407805e-01  1.92195896e-07 0
		  1.50366215e-01  4.20674727e-07 0
		  1.54635831e-01  2.01912611e-06 0
		</DataArray>
		<DataArray type="Float32" Name="$\mathit{p}$" format="ascii">
		  9.88816086e-01  9.88686103e-01  9.87828578e-01  9.88770128e-01  9.88652590e-01  9.87793220e-01  9.88754358e-01  9.88640437e-01
		  9.87776831e-01
		</DataArray>
		<DataArray type="Float32" Name="$\mathit{s}$" format="ascii">
		  4.17715573e-05 -7.59181738e-06  2.58840736e-07  4.16940138e-05 -7.58111276e-06  1.90214195e-07  4.16851938e-05 -7.56824359e-06
		  2.69786673e-07
		</DataArray>
		<DataArray type="Float32" Name="mach" format="ascii">
		  1.24526564e-01  1.27047030e-01  1.30735079e-01  1.24719789e-01  1.27226348e-01  1.30859565e-01  1.24781917e-01  1.27290569e-01
		  1.30920934e-01
		</DataArray>
		<DataArray type="Float32" Name="rhs_rho" format="ascii">
		  1.00000000e-15  1.00000000e-15  1.00000000e-15  1.00000000e-15  1.00000000e-15  1.00000000e-15  1.00000000e-15  1.00000000e-15
		  1.00000000e-15
		</DataArray>
		<DataArray type="Float32" Name="rhs_velocity" NumberOfComponents="3" format="ascii">
		  1.00000000e-15  1.00000000e-15 0
		  1.00000000e-15  1.00000000e-15 0
		  1.00000000e-15  1.00000000e-15 0
		  1.00000000e-15  1.00000000e-15 0
		  1.00000000e-15  1.00000000e-15 0
		  1.00000000e-15  1.00000000e-15 0
		  1.00000000e-15  1.00000000e-15 0
		  1.00000000e-15  1.00000000e-15 0
		  1.00000000e-15  1.00000000e-15 0
		</DataArray>
		<DataArray type="Float32" Name="rhs_E" format="ascii">
		  1.32723051e-15  1.00000000e-15  1.00000000e-15  1.00000000e-15  1.00000000e-15  1.00000000e-15  1.00000000e-15  1.00000000e-15
		  1.00000000e-15
		</DataArray>
	</PointData>
</Piece>


<Piece NumberOfPoints="9" NumberOfCells="4">
	<Points>
		<DataArray type="Float32" NumberOfComponents="3" format="ascii">
		  1.07928519e+00  2.64271404e-02 0
		  1.39067593e+00  9.35695425e-02 0
		  1.65454125e+00  1.97226560e-01 0
		  1.07928519e+00  1.49775444e-01 0
		  1.39067593e+00  2.12721446e-01 0
		  1.65454125e+00  3.09899900e-01 0
		  1.07928519e+00  2.73123748e-01 0
		  1.39067593e+00  3.31873350e-01 0
		  1.65454125e+00  4.22573240e-01 0
		</DataArray>
	</Points>
	<Cells>
		<DataArray type="Int32" Name="connectivity" format="ascii">
		   0   1   4   3
		   1   2   5   4
		   3   4   7   6
		   4   5   8   7
		</DataArray>
		<DataArray type="Int32" Name="offsets" format="ascii">
		   4   8  12  16
		</DataArray>
		<DataArray type="UInt8" Name="types" format="ascii">
		   9   9   9   9
		</DataArray>
	</Cells>
	<PointData Scalars="Scalars" Vectors="Vectors">
		<DataArray type="Int32" Name="index" format="ascii">
		   8   8   8   8   8   8   8   8
		   8
		</DataArray>
		<DataArray type="Int32" Name="p_ref" format="ascii">
		   2   2   2   2   2   2   2   2
		   2
		</DataArray>
		<DataArray type="Int32" Name="ml" format="ascii">
		   0   0   0   0   0   0   0   0
		   0
		</DataArray>
		<DataArray type="Float32" Name="$\rho$" format="ascii">
		  9.95309226e-01  9.94776856e-01  9.93003241e-01  9.94648222e-01  9.93938611e-01  9.92016518e-01  9.94076625e-01  9.93291669e-01
		  9.91321440e-01
		</DataArray>
		<DataArray type="Float32" Name="$\mathbf{v}$" NumberOfComponents="3" format="ascii">
		  1.21849141e-01  1.50557909e-02 0
		  1.19449654e-01  3.75261331e-02 0
		  1.33328125e-01  6.16722571e-02 0
		  1.27287751e-01  1.78972247e-02 0
		  1.28830343e-01  3.75629216e-02 0
		  1.43877806e-01  5.60410169e-02 0
		  1.31782595e-01  1.92207198e-02 0
		  1.36133803e-01  3.58963549e-02 0
		  1.51495384e-01  4.94532397e-02 0
		</DataArray>
		<DataArray type="Float32" Name="$\mathit{p}$" format="ascii">
		  9.93449968e-01  9.92693504e-01  9.90218886e-01  9.92515405e-01  9.91527707e-01  9.88847390e-01  9.91710092e-01  9.90629176e-01
		  9.87871976e-01
		</DataArray>
		<DataArray type="Float32" Name="$\mathit{s}$" format="ascii">