<?xml version="1.0"?>
<VTKFile type="UnstructuredGrid" version="0.1" byte_order="LittleEndian">
<UnstructuredGrid>

<Piece NumberOfPoints="16" NumberOfCells="9">
	<Points>
		<DataArray type="Float32" NumberOfComponents="3" format="ascii">
		  5.00000000e-01  1.00000000e-15 0
		  4.66587013e-01 -3.95431523e-04 0
		  4.33229306e-01  8.12608955e-04 0
		  3.99926880e-01  3.62412144e-03 0
		  7.50397924e-01  1.00000000e-15 0
		  7.15995021e-01 -2.74707487e-02 0
		  6.78897566e-01 -5.26795874e-02 0
		  6.39105558e-01 -7.56265159e-02 0
		  1.00079585e+00 -1.63374748e-15 0
		  9.65403030e-01 -5.45460660e-02 0
		  9.24565826e-01 -1.06171784e-01 0
		  8.78284236e-01 -1.54877153e-01 0
		  1.25119377e+00 -2.43897024e-15 0
		  1.21481104e+00 -8.16213832e-02 0
		  1.17023409e+00 -1.59663980e-01 0
		  1.11746291e+00 -2.34127790e-01 0
		</DataArray>
	</Points>
	<Cells>
		<DataArray type="Int32" Name="connectivity" format="ascii">
		   0   1   5   4
		   1   2   6   5
		   2   3   7   6
		   4   5   9   8
		   5   6  10   9
		   6   7  11  10
		   8   9  13  12
		   9  10  14  13
		  10  11  15  14
		</DataArray>
		<DataArray type="Int32" Name="offsets" format="ascii">
		   4   8  12  16  20  24  28  32  36
		</DataArray>
		<DataArray type="UInt8" Name="types" format="ascii">
		   9   9   9   9   9   9   9   9   9
		</DataArray>
	</Cells>
	<PointData Scalars="Scalars" Vectors="Vectors">
		<DataArray type="Int32" Name="index" format="ascii">
		   0   0   0   0   0   0   0   0
		   0   0   0   0   0   0   0   0
		</DataArray>
		<DataArray type="Int32" Name="p_ref" format="ascii">
		   3   3   3   3   3   3   3   3
		   3   3   3   3   3   3   3   3
		</DataArray>
		<DataArray type="Int32" Name="ml" format="ascii">
		   0   0   0   0   0   0   0   0
		   0   0   0   0   0   0   0   0
		</DataArray>
		<DataArray type="Float32" Name="rho" format="ascii">
		  1.00088588e+00  9.99481229e-01  9.98859335e-01  9.98039683e-01  9.97382075e-01  9.99127361e-01  9.99604784e-01  1.00020030e+00
		  9.98422610e-01  9.99619154e-01  9.99708337e-01  1.00039151e+00  9.97395690e-01  9.99606224e-01  1.00010377e+00  1.00072262e+00
		</DataArray>
		<DataArray type="Float32" Name="velocity" NumberOfComponents="3" format="ascii">
		  4.72284315e-02 -5.91622086e-03 0
		  7.07903523e-02 -3.97668668e-03 0
		  9.04423843e-02 -6.45400622e-03 0
		  1.01064046e-01 -1.08603610e-02 0
		  5.77861482e-02 -6.17466744e-04 0
		  9.63639182e-02 -1.94981550e-03 0
		  1.02105285e-01 -2.13637791e-03 0
		  9.80804094e-02 -8.86209777e-04 0
		  7.05920128e-02 -1.13621510e-03 0
		  1.01757130e-01 -1.29191631e-03 0
		  1.05271270e-01 -1.58537035e-03 0
		  1.07273848e-01 -3.11629529e-04 0
		  8.46693023e-02 -3.81920833e-04 0
		  1.02305621e-01 -1.33873521e-03 0
		  1.09261489e-01 -1.41127940e-03 0
		  1.21396501e-01 -9.96413365e-04 0
		</DataArray>
		<DataArray type="Float32" Name="p" format="ascii">
		  1.00490654e+00  1.00147383e+00  1.00002582e+00  9.99252440e-01  9.98993583e-01  1.00021158e+00  1.00027012e+00  1.00081579e+00
		  9.99929196e-01  1.00040646e+00  9.99849452e-01  1.00057315e+00  9.98284824e-01  1.00007186e+00  1.00011680e+00  1.00090372e+00
		</DataArray>
		<DataArray type="Float32" Name="s" format="ascii">
		  3.65486661e-03  2.19921440e-03  1.62366159e-03  1.99929664e-03  2.66297657e-03  1.43378582e-03  8.23499749e-04  5.35071699e-04
		  2.13928248e-03  9.39661110e-04  2.57828604e-04  2.49739669e-05  1.93414026e-03  6.23254929e-04 -2.84873984e-05 -1.07984442e-04
		</DataArray>
		<DataArray type="Float32" Name="mach" format="ascii">
		  4.01467127e-02  5.98634504e-02  7.65874342e-02  8.58543179e-02  4.88015877e-02  8.14148830e-02  8.62848925e-02  8.28709647e-02
		  5.96238993e-02  8.59735526e-02  8.89742714e-02  9.06551022e-02  7.15274744e-02  8.64513006e-02  9.23499136e-02  1.02592942e-01
		</DataArray>
		<DataArray type="Float32" Name="rhs_rho" format="ascii">
		  1.42492383e-08  1.40539984e-07  3.16456441e-07  1.67199042e-07 -6.17609312e-09 -2.62927079e-08 -7.30257507e-08 -4.26910272e-08
		  3.18283814e-09  1.65140847e-08  3.96701323e-08  3.10278934e-08 -4.88235261e-09 -3.93999495e-08 -9.16947012e-08 -5.22268431e-08
		</DataArray>
		<DataArray type="Float32" Name="rhs_velocity" NumberOfComponents="3" format="ascii">
		 -1.37363436e-09 -2.01399514e-08 0
		  1.46180013e-08 -1.55554456e-07 0
		  1.24522812e-08 -3.65979327e-07 0
		 -8.73334459e-09 -2.06388995e-07 0
		 -2.77275817e-10  5.19442246e-09 0
		 -2.29891060e-09  4.00874101e-08 0
		 -1.76547351e-09  9.44178381e-08 0
		  2.67044562e-09  5.35988308e-08 0
		  9.46550647e-12 -2.53174745e-09 0
		  1.85052363e-09 -1.90837460e-08 0
		  1.62972208e-09 -4.50978701e-08 0
		  1.19528045e-09 -2.56265950e-08 0
		  3.16746288e-10  6.49305735e-09 0
		 -4.05434026e-09  4.91135390e-08 0
		 -2.58538000e-09  1.16103146e-07 0
		  2.54454157e-09  6.61209883e-08 0
		</DataArray>
		<DataArray type="Float32" Name="rhs_E" format="ascii">
		  4.99892068e-08  4.93183244e-07  1.11030464e-06  5.86863759e-07 -2.17039095e-08 -9.23123149e-08 -2.56366831e-07 -1.49969896e-07
		  1.11577665e-08  5.79105319e-08  1.39073670e-07  1.08994942e-07 -1.71221623e-08 -1.38282584e-07 -3.21716922e-07 -1.83427945e-07
		</DataArray>
	</PointData>
</Piece>


<Piece NumberOfPoints="16" NumberOfCells="9">
	<Points>
		<DataArray type="Float32" NumberOfComponents="3" format="ascii">
		  1.25119377e+00 -2.43699603e-15 0
		  1.21481104e+00 -8.16213832e-02 0
		  1.17023409e+00 -1.59663980e-01 0
		  1.11746291e+00 -2.34127790e-01 0
		  1.55167128e+00 -3.40435108e-15 0
		  1.51410064e+00 -1.14111763e-01 0
		  1.46503599e+00 -2.23854615e-01 0
		  1.40447732e+00 -3.29228554e-01 0
		  1.85214878e+00 -4.37217998e-15 0
		  1.81339025e+00 -1.46602144e-01 0
		  1.75983790e+00 -2.88045249e-01 0
		  1.69149173e+00 -4.24329317e-01 0
		  2.15262628e+00 -5.33832619e-15 0
		  2.11267985e+00 -1.79092524e-01 0
		  2.05463981e+00 -3.52235884e-01 0
		  1.97850614e+00 -5.19430081e-01 0
		</DataArray>
	</Points>
	<Cells>
		<DataArray type="Int32" Name="connectivity" format="ascii">
		   0   1   5   4
		   1   2   6   5
		   2   3   7   6
		   4   5   9   8
		   5   6  10   9
		   6   7  11  10
		   8   9  13  12
		   9  10  14  13
		  10  11  15  14
		</DataArray>
		<DataArray type="Int32" Name="offsets" format="ascii">
		   4   8  12  16  20  24  28  32  36
		</DataArray>
		<DataArray type="UInt8" Name="types" format="ascii">
		   9   9   9   9   9   9   9   9   9
		</DataArray>
	</Cells>
	<PointData Scalars="Scalars" Vectors="Vectors">
		<DataArray type="Int32" Name="index" format="ascii">
		   1   1   1   1   1   1   1   1
		   1   1   1   1   1   1   1   1
		</DataArray>
		<DataArray type="Int32" Name="p_ref" format="ascii">
		   3   3   3   3   3   3   3   3
		   3   3   3   3   3   3   3   3
		</DataArray>
		<DataArray type="Int32" Name="ml" format="ascii">
		   0   0   0   0   0   0   0   0
		   0   0   0   0   0   0   0   0
		</DataArray>
		<DataArray type="Float32" Name="rho" format="ascii">
		  9.98218727e-01  9.99794819e-01  9.99923758e-01  1.00072349e+00  9.98558870e-01  9.99831714e-01  1.00010837e+00  1.00027754e+00
		  9.98876225e-01  9.99865045e-01  1.00025836e+00  9.99978594e-01  9.98960718e-01  9.99915690e-01  1.00021790e+00  9.99652893e-01
		</DataArray>
		<DataArray type="Float32" Name="velocity" NumberOfComponents="3" format="ascii">
		  8.35959299e-02 -6.19042715e-04 0
		  1.02088849e-01 -1.32980854e-03 0
		  1.09766015e-01 -8.48261188e-04 0
		  1.22780448e-01  5.50158422e-05 0
		  8.76718790e-02 -8.55636257e-04 0
		  1.05370287e-01 -1.04461471e-03 0
		  1.19223490e-01 -1.01382069e-03 0
		  1.27334095e-01 -1.58246263e-03 0
		  8.67490106e-02 -9.95351406e-04 0
		  1.10389209e-01 -8.57459888e-04 0
		  1.23887929e-01 -7.65300455e-04 0
		  1.22578834e-01 -1.26263238e-03 0
		  8.47361379e-02 -9.39176584e-04 0
		  1.15159102e-01 -7.27393033e-04 0
		  1.24716529e-01 -8.85209563e-04 0
		  1.16304686e-01 -6.37442275e-04 0
		</DataArray>
		<DataArray type="Float32" Name="p" format="ascii">
		  9.99441928e-01  1.00033248e+00  9.99870435e-01  1.00089812e+00  9.99851641e-01  1.00010017e+00  9.99974357e-01  1.00016345e+00
		  1.00019528e+00  9.99958127e-01  1.00011806e+00  9.99894819e-01  1.00021709e+00  9.99892595e-01  1.00009369e+00  9.99600597e-01
		</DataArray>
		<DataArray type="Float32" Name="s" format="ascii">
		  1.93777895e-03  6.19711621e-04 -2.28296380e-05 -1.14804727e-04  1.87066786e-03  3.35783818e-04 -1.77359383e-04 -2.25064354e-04
		  1.76942861e-03  1.47075640e-04 -2.43607833e-04 -7.52175083e-05  1.67281681e-03  1.06283575e-05 -2.11337898e-04  8.65506848e-05
		</DataArray>
		<DataArray type="Float32" Name="mach" format="ascii">
		  7.06101439e-02  8.62649520e-02  9.27744587e-02  1.03759376e-01  7.40518706e-02  8.90465684e-02  1.00772635e-01  1.07631401e-01
		  7.32727576e-02  9.32943819e-02  1.04713752e-01  1.03607859e-01  7.15745115e-02  9.73302704e-02  1.05413906e-01  9.82994475e-02
		</DataArray>
		<DataArray type="Float32" Name="rhs_rho" format="ascii">
		  1.48768942e-09  1.35958437e-10  5.03408121e-09  5.09914679e-09  9.21174810e-10  2.51077443e-09  6.99427884e-09 -3.38878034e-09
		 -8.03464981e-10  2.86072964e-09  2.74435006e-09 -5.73774817e-09 -3.57696268e-10  5.54110582e-10 -2.99537895e-10 -1.00873129e-09
		</DataArray>
		<DataArray type="Float32" Name="rhs_velocity" NumberOfComponents="3" format="ascii">
		  3.76220353e-10 -5.58049841e-11 0
		 -2.87867152e-11  2.42656371e-11 0
		  1.51774962e-09 -2.33560427e-10 0
		  2.46472597e-09 -4.98567796e-10 0
		  4.49017610e-10  4.18215888e-11 0
		  4.23201294e-10 -6.19434991e-12 0
		  1.72204325e-09  8.77414873e-11 0
		 -1.54145131e-09 -5.24581929e-11 0
		 -4.00835038e-11  5.75374392e-12 0
		  5.80377468e-10  1.30382943e-12 0
		  8.18107412e-10  7.86867141e-12 0
		 -1.54982963e-09 -2.09013026e-13 0
		 -1.35080958e-10  2.27787655e-12 0
		  1.14190195e-10  5.11012208e-12 0
		 -2.79933846e-10  2.30904141e-11 0
		 -3.20042694e-10 -3.92902486e-12 0
		</DataArray>
		<DataArray type="Float32" Name="rhs_E" format="ascii">
		  5.24912864e-09  4.52716919e-10  1.77417822e-08  1.80779077e-08  3.27615309e-09  8.78727670e-09  2.45974592e-08 -1.19939783e-08
		 -2.80032288e-09  1.00358152e-08  9.67921048e-09 -2.01782609e-08 -1.25860802e-09  1.94215535e-09 -1.07249028e-09 -3.56753209e-09
		</DataArray>
	</PointData>
</Piece>


<Piece NumberOfPoints="16" NumberOfCells="9">
	<Points>
		<DataArray type="Float32" NumberOfComponents="3" format="ascii">
		  2.15262628e+00 -5.33504438e-15 0
		  2.11267985e+00 -1.79092524e-01 0
		  2.05463981e+00 -3.52235884e-01 0
		  1.97850614e+00 -5.19430081e-01 0
		  2.51319929e+00 -6.49635035e-15 0
		  2.47182738e+00 -2.18080980e-01 0
		  2.40840209e+00 -4.29264645e-01 0
		  2.32292343e+00 -6.33550996e-01 0
		  2.87377229e+00 -7.65829894e-15 0
		  2.83097490e+00 -2.57069436e-01 0
		  2.76216438e+00 -5.06293406e-01 0
		  2.66734072e+00 -7.47671911e-01 0
		  3.23434529e+00 -8.81755331e-15 0
		  3.19012243e+00 -2.96057892e-01 0
		  3.11592667e+00 -5.83322167e-01 0
		  3.01175801e+00 -8.61792826e-01 0
		</DataArray>
	</Points>
	<Cells>
		<DataArray type="Int32" Name="connectivity" format="ascii">
		   0   1   5   4
		   1   2   6   5
		   2   3   7   6
		   4   5   9   8
		   5   6  10   9
		   6   7  11  10
		   8   9  13  12
		   9  10  14  13
		  10  11  15  14
		</DataArray>
		<DataArray type="Int32" Name="offsets" format="ascii">
		   4   8  12  16  20  24  28  32  36
		</DataArray>
		<DataArray type="UInt8" Name="types" format="ascii">
		   9   9   9   9   9   9   9   9   9
		</DataArray>
	</Cells>
	<PointData Scalars="Scalars" Vectors="Vectors">
		<DataArray type="Int32" Name="index" format="ascii">
		   2   2   2   2   2   2   2   2
		   2   2   2   2   2   2   2   2
		</DataArray>
		<DataArray type="Int32" Name="p_ref" format="ascii">
		   3   3   3   3   3   3   3   3
		   3   3   3   3   3   3   3   3
		</DataArray>
		<DataArray type="Int32" Name="ml" format="ascii">
		   0   0   0   0   0   0   0   0
		   0   0   0   0   0   0   0   0
		</DataArray>
		<DataArray type="Float32" Name="rho" format="ascii">
		  9.99012095e-01  9.99917101e-01  1.00027830e+00  9.99701441e-01  9.98906110e-01  1.00004008e+00  1.00010161e+00  9.99854518e-01
		  9.98756015e-01  1.00017128e+00  9.99946187e-01  1.00017979e+00  9.98613043e-01  1.00026814e+00  9.99797519e-01  1.00054274e+00
		</DataArray>
		<DataArray type="Float32" Name="velocity" NumberOfComponents="3" format="ascii">
		  8.47368820e-02 -9.73241370e-04 0
		  1.15174613e-01 -6.38906810e-04 0
		  1.24748840e-01 -8.33380750e-04 0
		  1.15936509e-01 -1.16304554e-03 0
		  8.42892078e-02 -7.43228345e-04 0
		  1.18835713e-01 -5.82110628e-04 0
		  1.22646717e-01 -9.25138722e-04 0
		  1.12102022e-01  2.52579162e-04 0
		  8.64918896e-02 -4.63463698e-04 0
		  1.20322225e-01 -5.05463906e-04 0
		  1.20410961e-01 -9.60005210e-04 0
		  1.13222541e-01  6.46320377e-04 0
		  9.02549247e-02 -1.66216912e-04 0
		  1.20444022e-01 -5.18324497e-04 0
		  1.18989403e-01 -8.65030299e-04 0
		  1.16230999e-01  6.81035495e-04 0
		</DataArray>
		<DataArray type="Float32" Name="p" format="ascii">
		  1.00028543e+00  9.99895014e-01  1.00017087e+00  9.99674500e-01  1.00004984e+00  9.99951782e-01  1.00004983e+00  9.99871776e-01
		  9.99751054e-01  1.00007490e+00  9.99939266e-01  1.00016489e+00  9.99446012e-01  1.00019284e+00  9.99789696e-01  1.00051419e+00
		</DataArray>
		<DataArray type="Float32" Name="s" format="ascii">
		  1.66913956e-03  1.10718554e-05 -2.18720877e-04  9.24924227e-05  1.58212265e-03 -1.04335754e-04 -9.24280420e-05  7.54575444e-05
		  1.49368584e-03 -1.64872619e-04  1.46048820e-05 -8.67977898e-05  1.38894654e-03 -1.82530854e-04  7.31761094e-05 -2.45569265e-04
		</DataArray>
		<DataArray type="Float32" Name="mach" format="ascii">
		  7.15748599e-02  9.73428871e-02  1.05440029e-01  9.79904846e-02  7.11994026e-02  1.00440148e-01  1.03661028e-01  9.47429233e-02
		  7.30636512e-02  1.01696638e-01  1.01769422e-01  9.56927840e-02  7.62476695e-02  1.01798553e-01  1.00567451e-01  9.82362108e-02
		</DataArray>
		<DataArray type="Float32" Name="rhs_rho" format="ascii">
		 -6.29883951e-10  1.03021816e-09 -2.10256239e-10 -2.77858399e-09 -1.59157743e-09  1.36637054e-09 -2.46908016e-09  2.10684292e-11
		 -8.31020601e-10  4.45691531e-10 -2.04822121e-09  2.46420213e-09 -5.40297736e-11  5.17942065e-11 -2.26808480e-10  6.68196242e-10
		</DataArray>
		<DataArray type="Float32" Name="rhs_velocity" NumberOfComponents="3" format="ascii">
		 -9.60161902e-11 -6.95814202e-12 0
		  2.44533229e-10  8.24075653e-12 0
		  3.93830135e-11  8.14523603e-12 0
		 -1.00067825e-09  5.90596531e-11 0
		 -5.53246085e-10 -6.95677723e-11 0
		  3.84243024e-10  2.58460469e-11 0
		 -7.67123445e-10 -6.04345118e-11 0
		  4.07205605e-10  2.76489348e-10 0
		 -3.64086161e-10 -7.07184449e-11 0
		  1.81271496e-10  3.19136221e-11 0
		 -6.27409152e-10 -5.20709938e-11 0
		  8.91473745e-10  2.36794996e-10 0
		 -4.25491862e-11 -1.06599943e-11 0
		  1.80132645e-11 -1.98197691e-12 0
		 -8.86500654e-11 -1.09043705e-11 0
		  2.45355644e-10  8.79488647e-11 0
		</DataArray>
		<DataArray type="Float32" Name="rhs_E" format="ascii">
		 -2.20603400e-09  3.61913346e-09 -7.24688419e-10 -9.80607691e-09 -5.60101454e-09  4.80378860e-09 -8.67713005e-09  8.40471053e-11
		 -2.93316887e-09  1.57268503e-09 -7.20424188e-09  8.66595788e-09 -1.93407689e-10  1.82624538e-10 -7.99877333e-10  2.35893596e-09
		</DataArray>
	</PointData>
</Piece>


<Piece NumberOfPoints="16" NumberOfCells="9">
	<Points>
		<DataArray type="Float32" NumberOfComponents="3" format="ascii">
		  3.23434529e+00 -8.81270238e-15 0
		  3.19012243e+00 -2.96057892e-01 0
		  3.11592667e+00 -5.83322167e-01 0
		  3.01175801e+00 -8.61792826e-01 0
		  3.66703289e+00 -1.02067495e-14 0
		  3.62109946e+00 -3.42844039e-01 0
		  3.54044141e+00 -6.75756680e-01 0
		  3.42505876e+00 -9.98737925e-01 0
		  4.09972050e+00 -1.16016417e-14 0
		  4.05207649e+00 -3.89630186e-01 0
		  3.96495616e+00 -7.68191194e-01 0
		  3.83835950e+00 -1.13568302e+00 0
		  4.53240810e+00 -1.29926259e-14 0
		  4.48305352e+00 -4.36416333e-01 0
		  4.38947090e+00 -8.60625707e-01 0
		  4.25166025e+00 -1.27262812e+00 0
		</DataArray>
	</Points>
	<Cells>
		<DataArray type="Int32" Name="connectivity" format="ascii">
		   0   1   5   4
		   1   2   6   5
		   2   3   7   6
		   4   5   9   8
		   5   6  10   9
		   6   7  11  10
		   8   9  13  12
		   9  10  14  13
		  10  11  15  14
		</DataArray>
		<DataArray type="Int32" Name="offsets" format="ascii">
		   4   8  12  16  20  24  28  32  36
		</DataArray>
		<DataArray type="UInt8" Name="types" format="ascii">
		   9   9   9   9   9   9   9   9   9
		</DataArray>
	</Cells>
	<PointData Scalars="Scalars" Vectors="Vectors">
		<DataArray type="Int32" Name="index" format="ascii">
		   3   3   3   3   3   3   3   3
		   3   3   3   3   3   3   3   3
		</DataArray>
		<DataArray type="Int32" Name="p_ref" format="ascii">
		   3   3   3   3   3   3   3   3
		   3   3   3   3   3   3   3   3
		</DataArray>
		<DataArray type="Int32" Name="ml" format="ascii">
		   0   0   0   0   0   0   0   0
		   0   0   0   0   0   0   0   0
		</DataArray>
		<DataArray type="Float32" Name="rho" format="ascii">
		  9.98610378e-01  1.00027776e+00  9.99801695e-01  1.00054325e+00  9.98632903e-01  1.00030665e+00  9.99763104e-01  1.00067692e+00
		  9.98746997e-01  1.00029187e+00  9.99771134e-01  1.00064739e+00  9.98898827e-01  1.00025134e+00  9.99810006e-01  1.00054205e+00
		</DataArray>
		<DataArray type="Float32" Name="velocity" NumberOfComponents="3" format="ascii">
		  9.02220999e-02 -1.55594016e-04 0
		  1.20448896e-01 -5.32583671e-04 0
		  1.18945588e-01 -9.00141140e-04 0
		  1.16334255e-01  8.65830498e-04 0
		  9.47492865e-02  2.87241087e-05 0
		  1.19987122e-01 -5.43532322e-04 0
		  1.18520375e-01 -6.23676613e-04 0
		  1.18936022e-01  2.12912964e-04 0
		  9.81363299e-02  8.60452386e-05 0
		  1.19647583e-01 -5.39438063e-04 0
		  1.18553361e-01 -4.59427091e-04 0
		  1.19621945e-01 -8.68610459e-05 0
		  1.00506151e-01  5.66193597e-05 0
		  1.19495748e-01 -4.97926374e-04 0
		  1.18651025e-01 -3.73266418e-04 0
		  1.19432298e-01 -2.30694522e-04 0
		</DataArray>
		<DataArray type="Float32" Name="p" format="ascii">
		  9.99445057e-01  1.00020464e+00  9.99798388e-01  1.00050829e+00  9.99325823e-01  1.00025754e+00  9.99751433e-01  1.00064354e+00
		  9.99347366e-01  1.00025488e+00  9.99751858e-01  1.00063058e+00  9.99446702e-01  1.00021349e+00  9.99795407e-01  1.00052609e+00
		</DataArray>
		<DataArray type="Float32" Name="s" format="ascii">
		  1.39172679e-03 -1.84191622e-04  7.60220681e-05 -2.52178089e-04  1.24084050e-03 -1.71726442e-04  8.30965385e-05 -3.04027079e-04
		  1.10245705e-03 -1.53705712e-04  7.22767687e-05 -2.75662190e-04  9.89039910e-04 -1.38370985e-04  6.14029221e-05 -2.32703110e-04
		</DataArray>
		<DataArray type="Float32" Name="mach" format="ascii">
		  7.62198579e-02  1.01802613e-01  1.00530414e-01  9.83248309e-02  8.00499990e-02  1.01411156e-01  1.00169971e-01  1.00521123e-01
		  8.29154512e-02  1.01123561e-01  1.00197595e-01  1.01099871e-01  8.49199293e-02  1.00995128e-01  1.00279647e-01  1.00939708e-01
		</DataArray>
		<DataArray type="Float32" Name="rhs_rho" format="ascii">
		 -8.17795042e-11 -2.64256349e-11 -4.65459583e-10  1.45985470e-09  2.70508579e-10 -1.45379591e-10 -2.25630909e-10  1.44463490e-09
		  2.87586643e-10 -8.25093649e-11  2.77077107e-11  3.70046823e-10  3.82754128e-11 -3.66019605e-13 -5.38509275e-11  1.07233380e-10
		</DataArray>
		<DataArray type="Float32" Name="rhs_velocity" NumberOfComponents="3" format="ascii">
		 -9.83200346e-11 -2.16197436e-11 0
		  2.16102953e-11  8.52568001e-12 0
		 -1.95682020e-10 -1.44732297e-11 0
		  5.51881810e-10  7.92753998e-11 0
		  6.92500420e-11  4.83899701e-12 0
		 -4.11317941e-11  2.55613144e-12 0
		 -4.17864527e-11  1.97782064e-11 0
		  3.17756982e-10 -1.77824358e-11 0
		  1.21218003e-10  2.73862023e-11 0
		 -5.04989792e-11 -8.19476130e-12 0
		  5.30347331e-11  3.09493711e-11 0
		 -1.67169645e-11 -8.65038895e-11 0
		  2.67296727e-11  6.87927185e-12 0
		 -7.53854393e-12 -2.64058113e-13 0
		  7.54566462e-12  1.01527517e-11 0
		 -2.60660762e-11 -3.20715414e-11 0
		</DataArray>
		<DataArray type="Float32" Name="rhs_E" format="ascii">
		 -2.95223703e-10 -9.02012369e-11 -1.64345541e-09  5.14741877e-09  9.44554132e-10 -5.08835642e-10 -7.96345849e-10  5.08465356e-09
		  1.01004095e-09 -2.90526000e-10  9.83308048e-11  1.30040640e-09  1.34891091e-10 -1.29241613e-12 -1.87860184e-10  3.72259772e-10
		</DataArray>
	</PointData>
</Piece>


<Piece NumberOfPoints="16" NumberOfCells="9">
	<Points>
		<DataArray type="Float32" NumberOfComponents="3" format="ascii">
		  4.53240810e+00 -1.29858920e-14 0
		  4.48305352e+00 -4.36416333e-01 0
		  4.38947090e+00 -8.60625707e-01 0
		  4.25166025e+00 -1.27262812e+00 0
		  5.05163323e+00 -1.46592284e-14 0
		  5.00022596e+00 -4.92559710e-01 0
		  4.89888860e+00 -9.71547124e-01 0
		  4.74762115e+00 -1.43696224e+00 0
		  5.57085836e+00 -1.63336530e-14 0
		  5.51739840e+00 -5.48703087e-01 0
		  5.40830630e+00 -1.08246854e+00 0
		  5.24358205e+00 -1.60129636e+00 0
		  6.09008348e+00 -1.80027129e-14 0
		  6.03457084e+00 -6.04846464e-01 0
		  5.91772399e+00 -1.19338996e+00 0
		  5.73954295e+00 -1.76563048e+00 0
		</DataArray>
	</Points>
	<Cells>
		<DataArray type="Int32" Name="connectivity" format="ascii">
		   0   1   5   4
		   1   2   6   5
		   2   3   7   6
		   4   5   9   8
		   5   6  10   9
		   6   7  11  10
		   8   9  13  12
		   9  10  14  13
		  10  11  15  14
		</DataArray>
		<DataArray type="Int32" Name="offsets" format="ascii">
		   4   8  12  16  20  24  28  32  36
		</DataArray>
		<DataArray type="UInt8" Name="types" format="ascii">
		   9   9   9   9   9   9   9   9   9
		</DataArray>
	</Cells>
	<PointData Scalars="Scalars" Vectors="Vectors">
		<DataArray type="Int32" Name="index" format="ascii">
		   4   4   4   4   4   4   4   4
		   4   4   4   4   4   4   4   4
		</DataArray>
		<DataArray type="Int32" Name="p_ref" format="ascii">
		   3   3   3   3   3   3   3   3
		   3   3   3   3   3   3   3   3
		</DataArray>
		<DataArray type="Int32" Name="ml" format="ascii">
		   0   0   0   0   0   0   0   0
		   0   0   0   0   0   0   0   0
		</DataArray>
		<DataArray type="Float32" Name="rho" format="ascii">
		  9.98895987e-01  1.00025471e+00  9.99805002e-01  1.00054873e+00  9.99029346e-01  1.00022126e+00  9.99831617e-01  1.00046925e+00
		  9.99130743e-01  1.00019735e+00  9.99849664e-01  1.00041714e+00  9.99205330e-01  1.00018018e+00  9.99861254e-01  1.00038177e+00
		</DataArray>
		<DataArray type="Float32" Name="velocity" NumberOfComponents="3" format="ascii">
		  1.00517087e-01  6.20415720e-05 0
		  1.19489877e-01 -5.01671335e-04 0
		  1.18660052e-01 -3.69561643e-04 0
		  1.19417886e-01 -2.45078118e-04 0
		  1.02567735e-01  3.34075236e-05 0
		  1.19422303e-01 -4.43078563e-04 0
		  1.18680693e-01 -3.45687590e-04 0
		  1.19084377e-01 -1.80248354e-04 0
		  1.04172535e-01  2.10973653e-05 0
		  1.19371458e-01 -3.99030868e-04 0
		  1.18661169e-01 -3.22660769e-04 0
		  1.18912800e-01 -1.38676835e-04 0
		  1.05480958e-01  1.93466664e-05 0
		  1.19322475e-01 -3.63585321e-04 0
		  1.18631218e-01 -3.00540483e-04 0
		  1.18836956e-01 -1.08683870e-04 0
		</DataArray>
		<DataArray type="Float32" Name="p" format="ascii">
		  9.99442200e-01  1.00021834e+00  9.99788163e-01  1.00053630e+00  9.99525028e-01  1.00018433e+00  9.99819349e-01  1.00045343e+00
		  9.99583598e-01  1.00016113e+00  9.99840638e-01  1.00039864e+00  9.99619220e-01  1.00014579e+00  9.99853616e-01  1.00036296e+00
		</DataArray>
		<DataArray type="Float32" Name="s" format="ascii">
		  9.88516379e-04 -1.38229882e-04  6.11652174e-05 -2.31848058e-04  8.84490587e-04 -1.25412661e-04  5.50877856e-05 -2.03469145e-04
		  8.01000477e-04 -1.15145377e-04  5.11121712e-05 -1.85322406e-04  7.32127631e-04 -1.06444754e-04  4.78629971e-05 -1.71489562e-04
		</DataArray>
		<DataArray type="Float32" Name="mach" format="ascii">
		  8.49292425e-02  1.00990104e-01  1.00287379e-01  1.00927373e-01  8.66640648e-02  1.00932826e-01  1.00304534e-01  1.00645579e-01
		  8.80219175e-02  1.00889686e-01  1.00287815e-01  1.00500657e-01  8.91292243e-02  1.00848099e-01  1.00262383e-01  1.00436546e-01
		</DataArray>
		<DataArray type="Float32" Name="rhs_rho" format="ascii">
		  7.91279439e-11 -5.05431287e-12  2.11611343e-12 -2.16650033e-11  1.22924592e-10  5.09424584e-12 -7.30641105e-11  7.88573578e-11
		  7.73221056e-11  7.65776295e-12 -8.99619326e-11  1.37098063e-10  2.31897089e-11  8.43600312e-13 -2.61953480e-11  4.84806129e-11
		</DataArray>
		<DataArray type="Float32" Name="rhs_velocity" NumberOfComponents="3" format="ascii">
		  4.80895093e-11  1.28913782e-11 0
		 -1.65859905e-11 -4.26808957e-12 0
		  2.75268884e-11  1.22042844e-11 0
		 -6.60236280e-11 -4.07888163e-11 0
		  8.37411664e-11  2.55990572e-11 0
		 -2.81176372e-11 -7.78155438e-12 0
		  2.99032618e-11  2.47787610e-11 0
		 -8.99495476e-11 -8.20133855e-11 0
		  6.10104627e-11  2.01009410e-11 0
		 -2.10016925e-11 -6.19884108e-12 0
		  1.48517856e-11  1.96194162e-11 0
		 -5.03613122e-11 -6.33428169e-11 0
		  1.76993979e-11  6.00117205e-12 0
		 -6.36411290e-12 -1.74255037e-12 0
		  3.84585275e-12  5.88740542e-12 0
		 -1.14811503e-11 -1.91722700e-11 0
		</DataArray>
		<DataArray type="Float32" Name="rhs_E" format="ascii">
		  2.79162282e-10 -1.84200208e-11  9.23102875e-12 -7.99769687e-11  4.33306030e-10  1.70551720e-11 -2.53940486e-10  2.69773918e-10
		  2.72325840e-10  2.64764341e-11 -3.14327388e-10  4.76670177e-10  8.15724393e-11  2.87488200e-12 -9.16420482e-11  1.69199176e-10
		</DataArray>
	</PointData>
</Piece>


<Piece NumberOfPoints="16" NumberOfCells="9">
	<Points>
		<DataArray type="Float32" NumberOfComponents="3" format="ascii">
		  6.09008348e+00 -1.79937195e-14 0
		  6.03457084e+00 -6.04846464e-01 0
		  5.91772399e+00 -1.19338996e+00 0
		  5.73954295e+00 -1.76563048e+00 0
		  6.71315364e+00 -2.00022032e-14 0
		  6.65517776e+00 -6.72218517e-01 0
		  6.52902523e+00 -1.32649566e+00 0
		  6.33469603e+00 -1.96283142e+00 0
		  7.33622379e+00 -2.20120666e-14 0
		  7.27578469e+00 -7.39590569e-01 0
		  7.14032646e+00 -1.45960136e+00 0
		  6.92984911e+00 -2.16003237e+00 0
		  7.95929394e+00 -2.40148174e-14 0
		  7.89639161e+00 -8.06962621e-01 0
		  7.75162770e+00 -1.59270706e+00 0
		  7.52500219e+00 -2.35723331e+00 0
		</DataArray>
	</Points>
	<Cells>
		<DataArray type="Int32" Name="connectivity" format="ascii">
		   0   1   5   4
		   1   2   6   5
		   2   3   7   6
		   4   5   9   8
		   5   6  10   9
		   6   7  11  10
		   8   9  13  12
		   9  10  14  13
		  10  11  15  14
		</DataArray>
		<DataArray type="Int32" Name="offsets" format="ascii">
		   4   8  12  16  20  24  28  32  36
		</DataArray>
		<DataArray type="UInt8" Name="types" format="ascii">
		   9   9   9   9   9   9   9   9   9
		</DataArray>
	</Cells>
	<PointData Scalars="Scalars" Vectors="Vectors">
		<DataArray type="Int32" Name="index" format="ascii">
		   5   5   5   5   5   5   5   5
		   5   5   5   5   5   5   5   5
		</DataArray>
		<DataArray type="Int32" Name="p_ref" format="ascii">
		   3   3   3   3   3   3   3   3
		   3   3   3   3   3   3   3   3
		</DataArray>
		<DataArray type="Int32" Name="ml" format="ascii">
		   0   0   0   0   0   0   0   0
		   0   0   0   0   0   0   0   0
		</DataArray>
		<DataArray type="Float32" Name="rho" format="ascii">
		  9.99207636e-01  1.00017996e+00  9.99861854e-01  1.00038091e+00  9.99280632e-01  1.00016330e+00  9.99873140e-01  1.00034746e+00
		  9.99341455e-01  1.00014972e+00  9.99882570e-01  1.00031955e+00  9.99391543e-01  1.00013809e+00  9.99890402e-01  1.00029625e+00
		</DataArray>
		<DataArray type="Float32" Name="velocity" NumberOfComponents="3" format="ascii">
		  1.05479937e-01  1.92759690e-05 0
		  1.19322682e-01 -3.64375313e-04 0
		  1.18630771e-01 -3.00589603e-04 0
		  1.18836605e-01 -1.10361514e-04 0
		  1.06768524e-01  2.00752552e-05 0
		  1.19264727e-01 -3.29110598e-04 0
		  1.18597749e-01 -2.72433509e-04 0
		  1.18796483e-01 -9.33689034e-05 0
		  1.07830281e-01  2.25007862e-05 0
		  1.19210168e-01 -3.00213203e-04 0
		  1.18571315e-01 -2.47146107e-04 0
		  1.18778201e-01 -8.18252653e-05 0
		  1.08719729e-01  2.50514819e-05 0
		  1.19160174e-01 -2.74896472e-04 0
		  1.18552173e-01 -2.24090597e-04 0
		  1.18767750e-01 -7.26022564e-05 0
		</DataArray>
		<DataArray type="Float32" Name="p" format="ascii">
		  9.99622329e-01  1.00014550e+00  9.99854452e-01  1.00036180e+00  9.99655975e-01  1.00013114e+00  9.99866715e-01  1.00032900e+00
		  9.99683996e-01  1.00011982e+00  9.99876719e-01  1.00030213e+00  9.99705980e-01  1.00011016e+00  9.99884817e-01  1.00028020e+00
		</DataArray>
		<DataArray type="Float32" Name="s" format="ascii">
		  7.32006734e-04 -1.06436982e-04  4.78591315e-05 -1.71442145e-04  6.63393363e-04 -9.74624348e-05  4.43212651e-05 -1.57403454e-04
		  6.06212988e-04 -8.97744809e-05  4.11221182e-05 -1.45219737e-04  5.58036327e-04 -8.31560732e-05  3.82561221e-05 -1.34528130e-04
		</DataArray>
		<DataArray type="Float32" Name="mach" format="ascii">
		  8.91283258e-02  1.00848280e-01  1.00261994e-01  1.00436265e-01  9.02189320e-02  1.00799095e-01  1.00233978e-01  1.00402310e-01
		  9.11176079e-02  1.00752806e-01  1.00211562e-01  1.00386800e-01  9.18704928e-02  1.00710402e-01  1.00195332e-01  1.00377894e-01
		</DataArray>
		<DataArray type="Float32" Name="rhs_rho" format="ascii">
		  2.35814068e-11  2.45555938e-12 -3.52923994e-11  6.27880089e-11  4.64277776e-11  5.63596444e-12 -9.34636358e-11  1.84851553e-10
		  3.34497907e-11  5.24840705e-12 -8.17935935e-11  1.71949784e-10  9.14582819e-12  1.87430856e-12 -2.43651684e-11  5.25216322e-11
		</DataArray>
		<DataArray type="Float32" Name="rhs_velocity" NumberOfComponents="3" format="ascii">
		  2.04127842e-11  7.15128275e-12 0
		 -7.33015170e-12 -2.25232432e-12 0
		  3.81532985e-12  7.01444174e-12 0
		 -1.37964672e-11 -2.24461381e-11 0
		  4.74849578e-11  1.81229578e-11 0
		 -1.78752640e-11 -5.66755233e-12 0
		  7.58628246e-12  1.77764348e-11 0