<?xml version="1.0"?>
<VTKFile type="UnstructuredGrid" version="0.1" byte_order="LittleEndian">
<UnstructuredGrid>

<Piece NumberOfPoints="9" NumberOfCells="4">
	<Points>
		<DataArray type="Float32" NumberOfComponents="3" format="ascii">
		  5.00000000e-01  1.00000000e-15 0
		  4.37395996e-01 -1.08544958e-03 0
		  3.74986339e-01 -6.55955825e-03 0
		  6.39657493e-01  1.00000000e-15 0
		  5.74760157e-01 -2.90867788e-02 0
		  5.04665260e-01 -6.11993385e-02 0
		  7.79314986e-01  1.00000000e-15 0
		  7.12124318e-01 -5.70881080e-02 0
		  6.34344182e-01 -1.15839119e-01 0
		</DataArray>
	</Points>
	<Cells>
		<DataArray type="Int32" Name="connectivity" format="ascii">
		   0   1   4   3
		   1   2   5   4
		   3   4   7   6
		   4   5   8   7
		</DataArray>
		<DataArray type="Int32" Name="offsets" format="ascii">
		   4   8  12  16
		</DataArray>
		<DataArray type="UInt8" Name="types" format="ascii">
		   9   9   9   9
		</DataArray>
	</Cells>
	<PointData Scalars="Scalars" Vectors="Vectors">
		<DataArray type="Int32" Name="index" format="ascii">
		   0   0   0   0   0   0   0   0
		   0
		</DataArray>
		<DataArray type="Int32" Name="p_ref" format="ascii">
		   2   2   2   2   2   2   2   2
		   2
		</DataArray>
		<DataArray type="Int32" Name="ml" format="ascii">
		   0   0   0   0   0   0   0   0
		   0
		</DataArray>
		<DataArray type="Float32" Name="rho" format="ascii">
		  1.00206084e+00  1.00141441e+00  1.00066342e+00  9.97940307e-01  1.00029604e+00  1.00011020e+00  1.00017433e+00  1.00061391e+00
		  9.99977495e-01
		</DataArray>
		<DataArray type="Float32" Name="velocity" NumberOfComponents="3" format="ascii">
		  7.87917377e-02 -5.23012711e-03 0
		  8.24173374e-02  2.76151531e-03 0
		  8.38107190e-02  1.07456600e-02 0
		  8.31810736e-02 -2.39651925e-03 0
		  9.85534132e-02 -3.34144247e-03 0
		  1.05364981e-01  7.16381637e-05 0
		  8.48567137e-02 -2.53455431e-03 0
		  1.08447445e-01 -1.35578175e-03 0
		  1.16368477e-01 -2.76651724e-03 0
		</DataArray>
		<DataArray type="Float32" Name="p" format="ascii">
		  1.00587374e+00  1.00258558e+00  1.00188265e+00  9.99083801e-01  1.00078548e+00  1.00066408e+00  1.00158953e+00  1.00109214e+00
		  1.00013583e+00
		</DataArray>
		<DataArray type="Float32" Name="s" format="ascii">
		  2.97434867e-03  6.03467387e-04  9.52397866e-04  1.96992494e-03  3.70775849e-04  5.09589296e-04  1.34423589e-03  2.32332596e-04
		  1.67325881e-04
		</DataArray>
		<DataArray type="Float32" Name="mach" format="ascii">
		  6.66111085e-02  6.96537342e-02  7.13693475e-02  7.02897500e-02  8.33203154e-02  8.90250338e-02  7.16982889e-02  9.16400856e-02
		  9.83693156e-02
		</DataArray>
		<DataArray type="Float32" Name="rhs_rho" format="ascii">
		 -7.71580593e-07  3.66202546e-07  1.12968507e-06  1.73568417e-07 -7.02895720e-08 -1.93480445e-07 -2.94584635e-07  1.35011869e-07
		  4.01656579e-07
		</DataArray>
		<DataArray type="Float32" Name="rhs_velocity" NumberOfComponents="3" format="ascii">
		 -7.11570830e-08  8.99418711e-07 0
		  5.78957965e-08 -4.16920352e-07 0
		  2.52751067e-07 -1.25062891e-06 0
		  2.13961457e-08 -2.24745161e-07 0
		 -1.17169071e-08  1.03715139e-07 0
		 -4.80660939e-08  3.08790752e-07 0
		 -3.32949526e-08  3.34755428e-07 0
		  2.19738999e-08 -1.55390585e-07 0
		  9.09445189e-08 -4.65376368e-07 0
		</DataArray>
		<DataArray type="Float32" Name="rhs_E" format="ascii">
		 -2.70885977e-06  1.28423493e-06  3.96136236e-06  6.10261049e-07 -2.46497257e-07 -6.78191023e-07 -1.03474202e-06  4.73518719e-07
		  1.40825919e-06
		</DataArray>
	</PointData>
</Piece>


<Piece NumberOfPoints="9" NumberOfCells="4">
	<Points>
		<DataArray type="Float32" NumberOfComponents="3" format="ascii">
		  7.79314986e-01  1.00000000e-15 0
		  7.12124318e-01 -5.70881080e-02 0
		  6.34344182e-01 -1.15839119e-01 0
		  9.74835462e-01 -1.53497681e-15 0
		  9.04434129e-01 -9.62899660e-02 0
		  8.15894658e-01 -1.92334805e-01 0
		  1.17035594e+00 -2.17981018e-15 0
		  1.09674394e+00 -1.35491824e-01 0
		  9.97445135e-01 -2.68830492e-01 0
		</DataArray>
	</Points>
	<Cells>
		<DataArray type="Int32" Name="connectivity" format="ascii">
		   0   1   4   3
		   1   2   5   4
		   3   4   7   6
		   4   5   8   7
		</DataArray>
		<DataArray type="Int32" Name="offsets" format="ascii">
		   4   8  12  16
		</DataArray>
		<DataArray type="UInt8" Name="types" format="ascii">
		   9   9   9   9
		</DataArray>
	</Cells>
	<PointData Scalars="Scalars" Vectors="Vectors">
		<DataArray type="Int32" Name="index" format="ascii">
		   1   1   1   1   1   1   1   1
		   1
		</DataArray>
		<DataArray type="Int32" Name="p_ref" format="ascii">
		   2   2   2   2   2   2   2   2
		   2
		</DataArray>
		<DataArray type="Int32" Name="ml" format="ascii">
		   0   0   0   0   0   0   0   0
		   0
		</DataArray>
		<DataArray type="Float32" Name="rho" format="ascii">
		  9.99304554e-01  1.00043187e+00  1.00014737e+00  9.98923998e-01  1.00023585e+00  9.99860434e-01  9.99169548e-01  1.00046036e+00
		  9.99805198e-01
		</DataArray>
		<DataArray type="Float32" Name="velocity" NumberOfComponents="3" format="ascii">
		  8.70509291e-02 -2.53869232e-03 0
		  1.08944252e-01 -1.82517179e-03 0
		  1.16817812e-01 -2.44852979e-03 0
		  9.50379268e-02 -1.80565033e-03 0
		  1.13955622e-01 -1.70948091e-03 0
		  1.17705589e-01 -2.29489663e-03 0
		  1.00167406e-01 -1.37292106e-03 0
		  1.15959555e-01 -1.26476406e-03 0
		  1.17428226e-01 -1.91390829e-03 0
		</DataArray>
		<DataArray type="Float32" Name="p" format="ascii">
		  1.00033794e+00  1.00084147e+00  1.00032886e+00  9.99588182e-01  1.00039472e+00  9.99813789e-01  9.99815430e-01  1.00059785e+00
		  9.99797800e-01
		</DataArray>
		<DataArray type="Float32" Name="s" format="ascii">
		  1.31184485e-03  2.36630137e-04  1.22506501e-04  1.09531019e-03  6.44856447e-05  9.17822594e-06  9.78528890e-04 -4.66790064e-05
		  7.05296456e-05
		</DataArray>
		<DataArray type="Float32" Name="mach" format="ascii">
		  7.35647157e-02  9.20687732e-02  9.87417973e-02  8.03095094e-02  9.63132667e-02  9.95006060e-02  8.46375098e-02  9.80028062e-02
		  9.92585132e-02
		</DataArray>
		<DataArray type="Float32" Name="rhs_rho" format="ascii">
		 -1.96835208e-08  5.38759420e-09  6.01388444e-09 -1.76999110e-08  4.42752619e-09 -4.47475466e-10 -4.36608764e-09 -1.08349894e-10
		 -2.13075198e-09
		</DataArray>
		<DataArray type="Float32" Name="rhs_velocity" NumberOfComponents="3" format="ascii">
		 -6.10994459e-09  2.79076093e-09 0
		  1.52430081e-09 -3.03625444e-10 0
		  2.37240299e-09 -1.17813265e-09 0
		 -2.31103372e-09 -8.42186234e-10 0
		  6.85124749e-10  1.34394121e-10 0
		 -1.41002707e-09  3.49300141e-10 0
		 -2.24654123e-09  9.86763303e-10 0
		  3.29208496e-10 -1.17953488e-10 0
		  5.31899658e-10 -4.30070185e-10 0
		</DataArray>
		<DataArray type="Float32" Name="rhs_E" format="ascii">
		 -6.93402382e-08  1.89699004e-08  2.10434859e-08 -6.19907050e-08  1.54941571e-08 -1.74871529e-09 -1.54485560e-08 -3.44791763e-10
		 -7.31067962e-09
		</DataArray>
	</PointData>
</Piece>


<Piece NumberOfPoints="9" NumberOfCells="4">
	<Points>
		<DataArray type="Float32" NumberOfComponents="3" format="ascii">
		  1.17035594e+00 -2.17913288e-15 0
		  1.09674394e+00 -1.35491824e-01 0
		  9.97445135e-01 -2.68830492e-01 0
		  1.44408461e+00 -3.08257004e-15 0
		  1.36597768e+00 -1.90374426e-01 0
		  1.25161581e+00 -3.75924455e-01 0
		  1.71781328e+00 -3.98516058e-15 0
		  1.63521142e+00 -2.45257028e-01 0
		  1.50578648e+00 -4.83018418e-01 0
		</DataArray>
	</Points>
	<Cells>
		<DataArray type="Int32" Name="connectivity" format="ascii">
		   0   1   4   3
		   1   2   5   4
		   3   4   7   6
		   4   5   8   7
		</DataArray>
		<DataArray type="Int32" Name="offsets" format="ascii">
		   4   8  12  16
		</DataArray>
		<DataArray type="UInt8" Name="types" format="ascii">
		   9   9   9   9
		</DataArray>
	</Cells>
	<PointData Scalars="Scalars" Vectors="Vectors">
		<DataArray type="Int32" Name="index" format="ascii">
		   2   2   2   2   2   2   2   2
		   2
		</DataArray>
		<DataArray type="Int32" Name="p_ref" format="ascii">
		   2   2   2   2   2   2   2   2
		   2
		</DataArray>
		<DataArray type="Int32" Name="ml" format="ascii">
		   0   0   0   0   0   0   0   0
		   0
		</DataArray>
		<DataArray type="Float32" Name="rho" format="ascii">
		  9.99061063e-01  1.00038355e+00  9.99733258e-01  9.99092940e-01  1.00030700e+00  9.99615525e-01  9.99288142e-01  1.00029903e+00
		  9.99635759e-01
		</DataArray>
		<DataArray type="Float32" Name="velocity" NumberOfComponents="3" format="ascii">
		  1.00468835e-01 -1.33653858e-03 0
		  1.16070796e-01 -1.45022645e-03 0
		  1.17468534e-01 -1.96287420e-03 0
		  1.05025202e-01 -1.04009470e-03 0
		  1.17095518e-01 -1.17655622e-03 0
		  1.17382469e-01 -1.54092224e-03 0
		  1.07933001e-01 -8.68703828e-04 0
		  1.17504107e-01 -1.00317059e-03 0
		  1.17355307e-01 -1.24396024e-03 0
		</DataArray>
		<DataArray type="Float32" Name="p" format="ascii">
		  9.99672022e-01  1.00047862e+00  9.99709485e-01  9.99559480e-01  1.00033321e+00  9.99658925e-01  9.99684318e-01  1.00032644e+00
		  9.99697745e-01
		</DataArray>
		<DataArray type="Float32" Name="s" format="ascii">
		  9.87098200e-04 -5.83657208e-05  8.29307652e-05  8.29844151e-04 -9.65761810e-05  1.97235650e-04  6.81224433e-04 -9.21915659e-05
		  2.07730404e-04
		</DataArray>
		<DataArray type="Float32" Name="mach" format="ascii">
		  8.48932231e-02  9.81007225e-02  9.92940711e-02  8.87461305e-02  9.89674745e-02  9.92126867e-02  9.12049120e-02  9.93113542e-02
		  9.91858334e-02
		</DataArray>
		<DataArray type="Float32" Name="rhs_rho" format="ascii">
		 -6.97887161e-09  9.11636382e-10 -1.54186078e-09 -8.47308461e-09  8.02564886e-10 -2.03404511e-09 -1.15891617e-09 -1.01215709e-10
		 -3.31466634e-10
		</DataArray>
		<DataArray type="Float32" Name="rhs_velocity" NumberOfComponents="3" format="ascii">
		 -1.64511463e-09  6.01386397e-11 0
		  1.15153825e-10  6.24022066e-12 0
		 -8.62744415e-10  1.30175013e-10 0
		 -1.64474149e-09 -9.07571265e-11 0
		  7.39167894e-11  4.83318940e-11 0
		 -4.42125115e-10  1.35330719e-10 0
		 -4.26611720e-10  4.91839458e-11 0
		 -8.03210156e-12 -2.26752626e-11 0
		 -1.11595881e-10  5.44298259e-11 0
		</DataArray>
		<DataArray type="Float32" Name="rhs_E" format="ascii">
		 -2.44915391e-08  3.17232837e-09 -5.36234356e-09 -2.96906079e-08  2.81237334e-09 -7.07170163e-09 -4.08314029e-09 -3.50559822e-10
		 -1.19134557e-09
		</DataArray>
	</PointData>
</Piece>


<Piece NumberOfPoints="9" NumberOfCells="4">
	<Points>
		<DataArray type="Float32" NumberOfComponents="3" format="ascii">
		  1.71781328e+00 -3.98280273e-15 0
		  1.63521142e+00 -2.45257028e-01 0
		  1.50578648e+00 -4.83018418e-01 0
		  2.10103342e+00 -5.24920059e-15 0
		  2.01213865e+00 -3.22092671e-01 0
		  1.86162542e+00 -6.32949966e-01 0
		  2.48425356e+00 -6.51265114e-15 0
		  2.38906589e+00 -3.98928314e-01 0
		  2.21746436e+00 -7.82881515e-01 0
		</DataArray>
	</Points>
	<Cells>
		<DataArray type="Int32" Name="connectivity" format="ascii">
		   0   1   4   3
		   1   2   5   4
		   3   4   7   6
		   4   5   8   7
		</DataArray>
		<DataArray type="Int32" Name="offsets" format="ascii">
		   4   8  12  16
		</DataArray>
		<DataArray type="UInt8" Name="types" format="ascii">
		   9   9   9   9
		</DataArray>
	</Cells>
	<PointData Scalars="Scalars" Vectors="Vectors">
		<DataArray type="Int32" Name="index" format="ascii">
		   3   3   3   3   3   3   3   3
		   3
		</DataArray>
		<DataArray type="Int32" Name="p_ref" format="ascii">
		   2   2   2   2   2   2   2   2
		   2
		</DataArray>
		<DataArray type="Int32" Name="ml" format="ascii">
		   0   0   0   0   0   0   0   0
		   0
		</DataArray>
		<DataArray type="Float32" Name="rho" format="ascii">
		  9.99274918e-01  1.00028148e+00  9.99631856e-01  9.99389355e-01  1.00021028e+00  9.99692487e-01  9.99518655e-01  1.00018091e+00
		  9.99748819e-01
		</DataArray>
		<DataArray type="Float32" Name="velocity" NumberOfComponents="3" format="ascii">
		  1.08029573e-01 -8.45030693e-04 0
		  1.17520135e-01 -1.06786672e-03 0
		  1.17376405e-01 -1.21720507e-03 0
		  1.10400298e-01 -6.96523099e-04 0
		  1.17821416e-01 -8.69007120e-04 0
		  1.17579394e-01 -1.00353096e-03 0
		  1.11928258e-01 -5.96113642e-04 0
		  1.17973103e-01 -7.44299931e-04 0
		  1.17705276e-01 -8.35762994e-04 0
		</DataArray>
		<DataArray type="Float32" Name="p" format="ascii">
		  9.99660233e-01  1.00030251e+00  9.99692222e-01  9.99674534e-01  1.00022160e+00  9.99729406e-01  9.99759209e-01  1.00019238e+00
		  9.99778434e-01
		</DataArray>
		<DataArray type="Float32" Name="s" format="ascii">
		  6.75658600e-04 -9.15581113e-05  2.07671735e-04  5.29645303e-04 -7.27943424e-05  1.59954264e-04  4.33225487e-04 -6.08898986e-05
		  1.30107205e-04
		</DataArray>
		<DataArray type="Float32" Name="mach" format="ascii">
		  9.12868483e-02  9.93256989e-02  9.92035062e-02  9.32938287e-02  9.95794165e-02  9.93745098e-02  9.45866035e-02  9.97068825e-02
		  9.94801491e-02
		</DataArray>
		<DataArray type="Float32" Name="rhs_rho" format="ascii">
		 -2.99890069e-09  1.71318981e-10 -2.61464187e-10 -3.96857020e-09  1.71109200e-10 -4.85041248e-10 -5.82163462e-10 -2.76668290e-11
		 -6.38761052e-11
		</DataArray>
		<DataArray type="Float32" Name="rhs_velocity" NumberOfComponents="3" format="ascii">
		 -6.88205687e-10 -7.90728671e-12 0
		 -4.54816480e-11  4.62915776e-12 0
		 -4.17432793e-11  4.75107463e-11 0
		 -8.40806657e-10 -4.20687893e-11 0
		 -3.96433719e-11  2.72771111e-11 0
		 -4.42702233e-12  9.80099230e-11 0
		 -1.64101029e-10  7.75645691e-12 0
		 -1.86975278e-11 -7.37205395e-12 0
		  2.65266568e-11  2.11023340e-11 0
		</DataArray>
		<DataArray type="Float32" Name="rhs_E" format="ascii">
		 -1.05163466e-08  5.99753629e-10 -9.25485260e-10 -1.39131006e-08  6.02350336e-10 -1.71215127e-09 -2.04349047e-09 -9.70999531e-11
		 -2.19973573e-10
		</DataArray>
	</PointData>
</Piece>


<Piece NumberOfPoints="9" NumberOfCells="4">
	<Points>
		<DataArray type="Float32" NumberOfComponents="3" format="ascii">
		  2.48425356e+00 -6.50794053e-15 0
		  2.38906589e+00 -3.98928314e-01 0
		  2.21746436e+00 -7.82881515e-01 0
		  3.02076172e+00 -8.28248326e-15 0
		  2.91676399e+00 -5.06498207e-01 0
		  2.71563884e+00 -9.92785670e-01 0
		  3.55726988e+00 -1.00511377e-14 0
		  3.44446209e+00 -6.14068101e-01 0
		  3.21381333e+00 -1.20268982e+00 0
		</DataArray>
	</Points>
	<Cells>
		<DataArray type="Int32" Name="connectivity" format="ascii">
		   0   1   4   3
		   1   2   5   4
		   3   4   7   6
		   4   5   8   7
		</DataArray>
		<DataArray type="Int32" Name="offsets" format="ascii">
		   4   8  12  16
		</DataArray>
		<DataArray type="UInt8" Name="types" format="ascii">
		   9   9   9   9
		</DataArray>
	</Cells>
	<PointData Scalars="Scalars" Vectors="Vectors">
		<DataArray type="Int32" Name="index" format="ascii">
		   4   4   4   4   4   4   4   4
		   4
		</DataArray>
		<DataArray type="Int32" Name="p_ref" format="ascii">
		   2   2   2   2   2   2   2   2
		   2
		</DataArray>
		<DataArray type="Int32" Name="ml" format="ascii">
		   0   0   0   0   0   0   0   0
		   0
		</DataArray>
		<DataArray type="Float32" Name="rho" format="ascii">
		  9.99514250e-01  1.00017664e+00  9.99748726e-01  9.99591489e-01  1.00013732e+00  9.99788137e-01  9.99667492e-01  1.00011767e+00
		  9.99823320e-01
		</DataArray>
		<DataArray type="Float32" Name="velocity" NumberOfComponents="3" format="ascii">
		  1.11969560e-01 -5.79082581e-04 0
		  1.17977797e-01 -7.65368151e-04 0
		  1.17714816e-01 -8.27676872e-04 0
		  1.13279407e-01 -4.82332491e-04 0
		  1.18108819e-01 -6.24652636e-04 0
		  1.17862945e-01 -6.98486418e-04 0
		  1.14164146e-01 -4.11555151e-04 0
		  1.18179269e-01 -5.31941766e-04 0
		  1.17942108e-01 -5.92861200e-04 0
		</DataArray>
		<DataArray type="Float32" Name="p" format="ascii">
		  9.99750495e-01  1.00018664e+00  9.99777678e-01  9.99776104e-01  1.00014176e+00  9.99810170e-01  9.99824726e-01  1.00012172e+00
		  9.99843021e-01
		</DataArray>
		<DataArray type="Float32" Name="s" format="ascii">
		  4.30678751e-04 -6.06536622e-05  1.29481069e-04  3.48111941e-04 -5.04865882e-05  1.06790671e-04  2.90298578e-04 -4.30119518e-05
		  9.03829025e-05
		</DataArray>
		<DataArray type="Float32" Name="mach" format="ascii">
		  9.46216340e-02  9.97110368e-02  9.94881959e-02  9.57306010e-02  9.98213457e-02  9.96130214e-02  9.64793538e-02  9.98805214e-02
		  9.96795513e-02
		</DataArray>
		<DataArray type="Float32" Name="rhs_rho" format="ascii">
		 -1.49312807e-09  4.09193591e-11 -4.57477182e-11 -2.10298489e-09  1.42325943e-11 -2.06303736e-10 -3.50127322e-10 -2.35307124e-11
		 -6.63605222e-11
		</DataArray>
		<DataArray type="Float32" Name="rhs_velocity" NumberOfComponents="3" format="ascii">
		 -3.56126819e-10 -1.41228614e-11 0
		 -3.47632292e-11  3.80252189e-12 0
		  3.76582444e-11  3.54044908e-11 0
		 -4.59125068e-10 -2.47137301e-11 0
		 -4.95873897e-11  1.61481939e-11 0
		  4.57003203e-11  6.68615604e-11 0
		 -9.44847077e-11 -5.36887819e-15 0
		 -1.27456103e-11 -2.70170685e-12 0
		  1.16840473e-11  1.53350765e-11 0
		</DataArray>
		<DataArray type="Float32" Name="rhs_E" format="ascii">
		 -5.23607218e-09  1.42735475e-10 -1.59719926e-10 -7.37188084e-09  5.03568298e-11 -7.23310193e-10 -1.22889987e-09 -8.21259741e-11
		 -2.32618122e-10
		</DataArray>
	</PointData>
</Piece>


<Piece NumberOfPoints="9" NumberOfCells="4">
	<Points>
		<DataArray type="Float32" NumberOfComponents="3" format="ascii">
		  3.55726988e+00 -1.00431332e-14 0
		  3.44446209e+00 -6.14068101e-01 0
		  3.21381333e+00 -1.20268982e+00 0
		  4.30838130e+00 -1.25290789e-14 0
		  4.18323942e+00 -7.64665950e-01 0
		  3.91125760e+00 -1.49655564e+00 0
		  5.05949271e+00 -1.50050189e-14 0
		  4.92201674e+00 -9.15263799e-01 0
		  4.60870187e+00 -1.79042145e+00 0
		</DataArray>
	</Points>
	<Cells>
		<DataArray type="Int32" Name="connectivity" format="ascii">
		   0   1   4   3
		   1   2   5   4
		   3   4   7   6
		   4   5   8   7
		</DataArray>
		<DataArray type="Int32" Name="offsets" format="ascii">
		   4   8  12  16
		</DataArray>
		<DataArray type="UInt8" Name="types" format="ascii">
		   9   9   9   9
		</DataArray>
	</Cells>
	<PointData Scalars="Scalars" Vectors="Vectors">
		<DataArray type="Int32" Name="index" format="ascii">
		   5   5   5   5   5   5   5   5
		   5
		</DataArray>
		<DataArray type="Int32" Name="p_ref" format="ascii">
		   2   2   2   2   2   2   2   2
		   2
		</DataArray>
		<DataArray type="Int32" Name="ml" format="ascii">
		   0   0   0   0   0   0   0   0
		   0
		</DataArray>
		<DataArray type="Float32" Name="rho" format="ascii">
		  9.99666898e-01  1.00011599e+00  9.99822928e-01  9.99718750e-01  1.00009239e+00  9.99850946e-01  9.99767367e-01  1.00007914e+00
		  9.99874410e-01
		</DataArray>
		<DataArray type="Float32" Name="velocity" NumberOfComponents="3" format="ascii">
		  1.14183472e-01 -4.02289270e-04 0
		  1.18180955e-01 -5.42487074e-04 0
		  1.17946953e-01 -5.88308866e-04 0
		  1.14982398e-01 -3.34153457e-04 0
		  1.18241610e-01 -4.43210467e-04 0
		  1.18033082e-01 -4.93719243e-04 0
		  1.15537276e-01 -2.83481147e-04 0
		  1.18275107e-01 -3.75740569e-04 0
		  1.18082986e-01 -4.18042485e-04 0
		</DataArray>
		<DataArray type="Float32" Name="p" format="ascii">
		  9.99822453e-01  1.00011954e+00  9.99842098e-01  9.99842469e-01  1.00009367e+00  9.99865819e-01  9.99873122e-01  1.00008035e+00
		  9.99887420e-01
		</DataArray>
		<DataArray type="Float32" Name="s" format="ascii">
		  2.88858525e-04 -4.28461045e-05  9.00080867e-05  2.36262066e-04 -3.56793985e-05  7.45007741e-05  1.98838227e-04 -3.04450227e-05
		  6.32507961e-05
		</DataArray>
		<DataArray type="Float32" Name="mach" format="ascii">
		  9.64957389e-02  9.98820123e-02  9.96836535e-02  9.71722611e-02  9.99330378e-02  9.97562920e-02  9.76419504e-02  9.99611541e-02
		  9.97983141e-02
		</DataArray>
		<DataArray type="Float32" Name="rhs_rho" format="ascii">
		 -8.35654751e-10 -1.04472827e-11 -4.72907072e-11 -1.20805317e-09 -4.79165596e-11 -1.27833751e-10 -2.08547088e-10 -2.51981079e-11
		 -3.40091468e-11
		</DataArray>
		<DataArray type="Float32" Name="rhs_velocity" NumberOfComponents="3" format="ascii">
		 -2.00314788e-10 -8.98837680e-12 0
		 -2.89451337e-11  2.50799821e-12 0
		  2.82053422e-11  2.81015467e-11 0
		 -2.66945534e-10 -1.40957018e-11 0
		 -4.75618434e-11  9.13638609e-12 0
		  4.69609848e-11  5.03209538e-11 0
		 -5.41646633e-11  1.14987203e-13 0
		 -1.20957499e-11 -1.54293222e-12 0
		  1.12688165e-11  1.24007444e-11 0
		</DataArray>
		<DataArray type="Float32" Name="rhs_E" format="ascii">
		 -2.93020738e-09 -3.68171989e-11 -1.65877974e-10 -4.23475319e-09 -1.67724279e-10 -4.48265776e-10 -7.31783175e-10 -8.81491370e-11
		 -1.19334207e-10
		</DataArray>
	</PointData>
</Piece>


<Piece NumberOfPoints="9" NumberOfCells="4">
	<Points>
		<DataArray type="Float32" NumberOfComponents="3" format="ascii">
		  5.05949271e+00 -1.49924029e-14 0
		  4.92201674e+00 -9.15263799e-01 0
		  4.60870187e+00 -1.79042145e+00 0
		  6.11104871e+00 -1.84743127e-14 0
		  5.95630501e+00 -1.12610079e+00 0
		  5.58512386e+00 -2.20183359e+00 0
		  7.16260470e+00 -2.19404525e-14 0
		  6.99059328e+00 -1.33693778e+00 0
		  6.56154585e+00 -2.61324574e+00 0
		</DataArray>
	</Points>
	<Cells>
		<DataArray type="Int32" Name="connectivity" format="ascii">
		   0   1   4   3
		   1   2   5   4
		   3   4   7   6
		   4   5   8   7
		</DataArray>
		<DataArray type="Int32" Name="offsets" format="ascii">
		   4   8  12  16
		</DataArray>
		<DataArray type="UInt8" Name="types" format="ascii">
		   9   9   9   9
		</DataArray>
	</Cells>
	<PointData Scalars="Scalars" Vectors="Vectors">
		<DataArray type="Int32" Name="index" format="ascii">
		   6   6   6   6   6   6   6   6
		   6
		</DataArray>
		<DataArray type="Int32" Name="p_ref" format="ascii">
		   2   2   2   2   2   2   2   2
		   2
		</DataArray>
		<DataArray type="Int32" Name="ml" format="ascii">
		   0   0   0   0   0   0   0   0
		   0
		</DataArray>
		<DataArray type="Float32" Name="rho" format="ascii">
		  9.99767554e-01  1.00007833e+00  9.99874419e-01  9.99803006e-01  1.00006331e+00  9.99894331e-01  9.99835308e-01  1.00005423e+00
		  9.99910395e-01
		</DataArray>
		<DataArray type="Float32" Name="velocity" NumberOfComponents="3" format="ascii">
		  1.15548081e-01 -2.77299460e-04 0
		  1.18275658e-01 -3.81903619e-04 0
		  1.18085613e-01 -4.14160406e-04 0
		  1.16062436e-01 -2.27915326e-04 0
		  1.18305648e-01 -3.09324550e-04 0
		  1.18142305e-01 -3.44514291e-04 0
		  1.16428342e-01 -1.91116122e-04 0
		  1.18322793e-01 -2.57933505e-04 0
		  1.18176549e-01 -2.89211035e-04 0
		</DataArray>
		<DataArray type="Float32" Name="p" format="ascii">
		  9.99872504e-01  1.00007933e+00  9.99887179e-01  9.99887403e-01  1.00006331e+00  9.99904405e-01  9.99907632e-01  1.00005424e+00
		  9.99919155e-01
		</DataArray>
		<DataArray type="Float32" Name="s" format="ascii">
		  1.97958793e-04 -3.03299687e-05  6.29977815e-05  1.63215759e-04 -2.53287025e-05  5.23438760e-05  1.38215817e-04 -2.16712733e-05
		  4.46039758e-05
		</DataArray>
		<DataArray type="Float32" Name="mach" format="ascii">
		  9.76511082e-02  9.99616469e-02  9.98005354e-02  9.80867107e-02  9.99868637e-02  9.98483935e-02  9.83964824e-02  1.00001249e-01
		  9.98772750e-02
		</DataArray>
		<DataArray type="Float32" Name="rhs_rho" format="ascii">
		 -4.88568114e-10 -3.13010889e-11 -2.68802383e-11 -7.12271024e-10 -7.26857602e-11 -6.77104651e-11 -1.25560236e-10 -2.59767325e-11
		 -1.59464452e-11
		</DataArray>
		<DataArray type="Float32" Name="rhs_velocity" NumberOfComponents="3" format="ascii">
		 -1.16978657e-10 -4.98216758e-12 0
		 -2.53400295e-11  1.15749207e-12 0
		  2.75726054e-11  2.29709251e-11 0
		 -1.56221907e-10 -6.90086456e-12 0
		 -4.42197390e-11  4.59224325e-12 0
		  4.80929016e-11  3.86601750e-11 0
		 -3.12662311e-11  6.71968910e-13 0
		 -1.12839522e-11 -1.21233940e-12 0
		  1.11598246e-11  1.06468847e-11 0
		</DataArray>
		<DataArray type="Float32" Name="rhs_E" format="ascii">
		 -1.71306890e-09 -1.09816057e-10 -9.41782716e-11 -2.49674406e-09 -2.54713806e-10 -2.37178586e-10 -4.40541554e-10 -9.09560691e-11
		 -5.60151926e-11
		</DataArray>
	</PointData>
</Piece>


<Piece NumberOfPoints="9" NumberOfCells="4">
	<Points>
		<DataArray type="Float32" NumberOfComponents="3" format="ascii">
		  7.16260470e+00 -2.19213806e-14 0
		  6.99059328e+00 -1.33693778e+00 0
		  6.56154585e+00 -2.61324574e+00 0
		  8.63478307e+00 -2.67976400e-14 0
		  8.43859683e+00 -1.63210956e+00 0
		  7.92853661e+00 -3.18922273e+00 0
		  1.01069614e+01 -3.16500595e-14 0
		  9.88660039e+00 -1.92728134e+00 0
		  9.29552737e+00 -3.76519972e+00 0
		</DataArray>
	</Points>
	<Cells>
		<DataArray type="Int32" Name="connectivity" format="ascii">
		   0   1   4   3
		   1   2   5   4
		   3   4   7   6
		   4   5   8   7
		</DataArray>
		<DataArray type="Int32" Name="offsets" format="ascii">
		   4   8  12  16
		</DataArray>
		<DataArray type="UInt8" Name="types" format="ascii">
		   9   9   9   9
		</DataArray>
	</Cells>
	<PointData Scalars="Scalars" Vectors="Vectors">
		<DataArray type="Int32" Name="index" format="ascii">
		   7   7   7   7   7   7   7   7
		   7
		</DataArray>
		<DataArray type="Int32" Name="p_ref" format="ascii">
		   2   2   2   2   2   2   2   2
		   2
		</DataArray>
		<DataArray type="Int32" Name="ml" format="ascii">
		   0   0   0   0   0   0   0   0
		   0
		</DataArray>
		<DataArray type="Float32" Name="rho" format="ascii">
		  9.99835902e-01  1.00005377e+00  9.99910367e-01  9.99859787e-01  1.00004392e+00  9.99924461e-01  9.99881220e-01  1.00003765e+00
		  9.99935418e-01
		</DataArray>
		<DataArray type="Float32" Name="velocity" NumberOfComponents="3" format="ascii">
		  1.16435560e-01 -1.85436156e-04 0
		  1.18322709e-01 -2.62590064e-04 0
		  1.18178303e-01 -2.84607117e-04 0
		  1.16780449e-01 -1.48528081e-04 0
		  1.18338750e-01 -2.06208476e-04 0
		  1.18221770e-01 -2.33563315e-04 0
		  1.17040269e-01 -1.23717856e-04 0
		  1.18348082e-01 -1.61748871e-04 0
		  1.18245911e-01 -1.93896903e-04 0
		</DataArray>
		<DataArray type="Float32" Name="p" format="ascii">
		  9.99907904e-01  1.00005368e+00  9.99918947e-01  9.99917797e-01  1.00004340e+00  9.99931305e-01  9.99930718e-01  1.00003721e+00
		  9.99941253e-01
		</DataArray>
		<DataArray type="Float32" Name="s" format="ascii">
		  1.37655249e-04 -2.15933968e-05  4.44360117e-05  1.14104985e-04 -1.80789133e-05  3.70607698e-05  9.70178435e-05 -1.54970457e-05
		  3.16688015e-05
		</DataArray>
		<DataArray type="Float32" Name="mach" format="ascii">
		  9.84025906e-02  1.00001192e-01  9.98787570e-02  9.86947099e-02  1.00014676e-01  9.99154849e-02  9.89146884e-02  1.00022500e-01
		  9.99358778e-02
		</DataArray>
		<DataArray type="Float32" Name="rhs_rho" format="ascii">
		 -2.85443935e-10 -4.02052858e-11 -2.92094044e-13 -4.21636963e-10 -8.22575619e-11 -2.74298254e-11 -8.05420625e-11 -2.68266359e-11
		 -9.77866478e-12
		</DataArray>
		<DataArray type="Float32" Name="rhs_velocity" NumberOfComponents="3" format="ascii">
		 -6.81178501e-11 -1.99769025e-12 0
		 -2.27385061e-11 -3.40631343e-13 0
		  2.79198619e-11  2.01654207e-11 0
		 -8.88472233e-11 -2.63276612e-12 0
		 -4.09638989e-11  2.15250040e-12 0
		  4.80132205e-11  2.82860604e-11 0
		 -1.87511159e-11  1.39581414e-12 0
		 -1.00764484e-11 -1.25302905e-12 0
		  7.54641028e-12  1.05496064e-11 0
		</DataArray>
		<DataArray type="Float32" Name="rhs_E" format="ascii">
		 -1.00083276e-09 -1.41008661e-10 -7.86365310e-13 -1.47787862e-09 -2.88351898e-10 -9.57403218e-11 -2.82681447e-10 -9.39057135e-11
		 -3.47363712e-11
		</DataArray>
	</PointData>
</Piece>


<Piece NumberOfPoints="9" NumberOfCells="4">
	<Points>
		<DataArray type="Float32" NumberOfComponents="3" format="ascii">
		  1.01069614e+01 -3.16219492e-14 0
		  9.88660039e+00 -1.92728134e+00 0
		  9.29552737e+00 -3.76519972e+00 0
		  1.21680111e+01 -3.84502981e-14 0
		  1.19138054e+01 -2.34052184e+00 0
		  1.12093144e+01 -4.57156750e+00 0
		  1.42290609e+01 -4.52435092e-14 0
		  1.39410103e+01 -2.75376233e+00 0
		  1.31231015e+01 -5.37793528e+00 0
		</DataArray>
	</Points>
	<Cells>
		<DataArray type="Int32" Name="connectivity" format="ascii">
		   0   1   4   3
		   1   2   5   4
		   3   4   7   6
		   4   5   8   7
		</DataArray>
		<DataArray type="Int32" Name="offsets" format="ascii">
		   4   8  12  16
		</DataArray>
		<DataArray type="UInt8" Name="types" format="ascii">
		   9   9   9   9
		</DataArray>
	</Cells>
	<PointData Scalars="Scalars" Vectors="Vectors">
		<DataArray type="Int32" Name="index" format="ascii">
		   8   8   8   8   8   8   8   8
		   8
		</DataArray>
		<DataArray type="Int32" Name="p_ref" format="ascii">
		   2   2   2   2   2   2   2   2
		   2
		</DataArray>
		<DataArray type="Int32" Name="ml" format="ascii">
		   0   0   0   0   0   0   0   0
		   0
		</DataArray>
		<DataArray type="Float32" Name="rho" format="ascii">
		  9.99883251e-01  1.00003726e+00  9.99934686e-01  9.99896132e-01  1.00003097e+00  9.99944838e-01  9.99908085e-01  1.00002678e+00
		  9.99951627e-01
		</DataArray>
		<DataArray type="Float32" Name="velocity" NumberOfComponents="3" format="ascii">
		  1.17048549e-01 -1.12176579e-04 0
		  1.18346783e-01 -1.69600570e-04 0
		  1.18247780e-01 -1.81807526e-04 0
		  1.17293651e-01 -8.61483916e-05 0
		  1.18355305e-01 -1.16393347e-04 0
		  1.18297040e-01 -1.50496925e-04 0
		  1.17536154e-01 -8.62353769e-05 0
		  1.18359257e-01 -5.62519801e-05 0
		  1.18305140e-01 -1.30473250e-04 0
		</DataArray>
		<DataArray type="Float32" Name="p" format="ascii">
		  9.99933194e-01  1.00003672e+00  9.99940114e-01  9.99934970e-01  1.00003040e+00  9.99949152e-01  9.99939842e-01  1.00002637e+00
		  9.99954854e-01
		</DataArray>
		<DataArray type="Float32" Name="s" format="ascii">
		  9.66501079e-05 -1.54430578e-05  3.15550783e-05  8.03907947e-05 -1.29493849e-05  2.63802597e-05  6.85270650e-05 -1.11124982e-05
		  2.25771043e-05
		</DataArray>
		<DataArray type="Float32" Name="mach" format="ascii">