<?xml version="1.0"?>
<VTKFile type="UnstructuredGrid" version="0.1" byte_order="LittleEndian">
<UnstructuredGrid>

<Piece NumberOfPoints="16" NumberOfCells="9">
	<Points>
		<DataArray type="Float32" NumberOfComponents="3" format="ascii">
		  5.00000000e-01  1.00000000e-15 0
		  4.66587013e-01 -7.76706911e-03 0
		  4.33229306e-01 -1.15018057e-02 0
		  3.99926880e-01 -1.12042098e-02 0
		  7.50397924e-01 -1.10162798e-15 0
		  7.15995021e-01 -3.47477277e-02 0
		  6.78897566e-01 -6.48358736e-02 0
		  6.39105558e-01 -9.02644377e-02 0
		  1.00079585e+00 -1.92261033e-15 0
		  9.65403030e-01 -6.17283863e-02 0
		  9.24565826e-01 -1.18169942e-01 0
		  8.78284236e-01 -1.69324666e-01 0
		  1.25119377e+00 -2.74359269e-15 0
		  1.21481104e+00 -8.87090450e-02 0
		  1.17023409e+00 -1.71504009e-01 0
		  1.11746291e+00 -2.48384894e-01 0
		</DataArray>
	</Points>
	<Cells>
		<DataArray type="Int32" Name="connectivity" format="ascii">
		   0   1   5   4
		   1   2   6   5
		   2   3   7   6
		   4   5   9   8
		   5   6  10   9
		   6   7  11  10
		   8   9  13  12
		   9  10  14  13
		  10  11  15  14
		</DataArray>
		<DataArray type="Int32" Name="offsets" format="ascii">
		   4   8  12  16  20  24  28  32  36
		</DataArray>
		<DataArray type="UInt8" Name="types" format="ascii">
		   9   9   9   9   9   9   9   9   9
		</DataArray>
	</Cells>
	<PointData Scalars="Scalars" Vectors="Vectors">
		<DataArray type="Int32" Name="index" format="ascii">
		   0   0   0   0   0   0   0   0
		   0   0   0   0   0   0   0   0
		</DataArray>
		<DataArray type="Int32" Name="p_ref" format="ascii">
		   3   3   3   3   3   3   3   3
		   3   3   3   3   3   3   3   3
		</DataArray>
		<DataArray type="Int32" Name="ml" format="ascii">
		   0   0   0   0   0   0   0   0
		   0   0   0   0   0   0   0   0
		</DataArray>
		<DataArray type="Float32" Name="rho" format="ascii">
		  9.98678984e-01  9.99629628e-01  9.99796198e-01  9.96787894e-01  9.96990528e-01  9.98603859e-01  9.99736224e-01  9.99969101e-01
		  9.98353008e-01  9.99869681e-01  1.00008725e+00  1.00039140e+00  9.96554244e-01  9.99436648e-01  9.99836907e-01  1.00125377e+00
		</DataArray>
		<DataArray type="Float32" Name="velocity" NumberOfComponents="3" format="ascii">
		  1.18490980e-02 -3.47982154e-03 0
		  2.44980841e-02  1.08228075e-03 0
		  6.03813959e-02 -3.28866437e-04 0
		  9.98091894e-02 -9.93941468e-03 0
		  2.58392205e-02 -1.41417533e-03 0
		  8.43234840e-02 -9.68750930e-04 0
		  1.08549805e-01 -1.21817216e-03 0
		  1.05170881e-01  3.85789521e-04 0
		  3.93528326e-02 -9.61258352e-04 0
		  1.03491657e-01 -6.65451489e-04 0
		  1.15302676e-01 -1.46984288e-03 0
		  1.09148727e-01  6.55056071e-04 0
		  6.06834243e-02 -5.47047318e-04 0
		  1.07740355e-01 -9.73261858e-04 0
		  1.14804070e-01 -1.78681362e-03 0
		  1.23323179e-01  3.29283367e-04 0
		</DataArray>
		<DataArray type="Float32" Name="p" format="ascii">
		  1.00526703e+00  1.00282819e+00  1.00110774e+00  9.97781753e-01  9.99245365e-01  9.99603579e-01  1.00017014e+00  1.00036201e+00
		  1.00018870e+00  1.00056600e+00  1.00009467e+00  1.00028488e+00  9.97491254e-01  9.99611914e-01  9.99523218e-01  1.00149036e+00
		</DataArray>
		<DataArray type="Float32" Name="s" format="ascii">
		  7.10385087e-03  3.34281640e-03  1.39248098e-03  2.28347481e-03  3.46469334e-03  1.55946393e-03  5.39463674e-04  4.05199997e-04
		  2.49637423e-03  7.48301647e-04 -2.74758349e-05 -2.63005459e-04  2.32049071e-03  4.00753778e-04 -2.48547107e-04 -2.64929158e-04
		</DataArray>
		<DataArray type="Float32" Name="mach" format="ascii">
		  1.04029804e-02  2.06917771e-02  5.09989110e-02  8.47291700e-02  2.18461190e-02  7.12354056e-02  9.17272023e-02  8.88687581e-02
		  3.32385905e-02  8.74377816e-02  9.74561027e-02  9.22540837e-02  5.12648429e-02  9.10529508e-02  9.70541252e-02  1.04215169e-01
		</DataArray>
		<DataArray type="Float32" Name="rhs_rho" format="ascii">
		  8.81261305e-09  2.07884952e-08  8.09545954e-08  6.53470918e-08 -3.75557846e-09  2.57524090e-09 -1.00839769e-08 -1.87264503e-08
		  3.56316642e-11  3.23320384e-09  7.58766392e-09  1.03153852e-08 -2.37752826e-09 -3.75783115e-09 -1.86776564e-08 -1.86399549e-08
		</DataArray>
		<DataArray type="Float32" Name="rhs_velocity" NumberOfComponents="3" format="ascii">
		  1.88061510e-09 -1.07298327e-08 0
		  4.68106535e-09 -1.63912210e-08 0
		  1.40541754e-08 -8.13123184e-08 0
		  1.65122202e-09 -8.04537481e-08 0
		 -5.67739371e-10  2.73655496e-09 0
		 -2.83064987e-10  4.20866768e-09 0
		 -1.79230984e-09  2.08862804e-08 0
		 -5.17869279e-10  2.09200738e-08 0
		 -1.94440777e-10 -1.35006294e-09 0
		  9.99734241e-10 -1.99116097e-09 0
		  1.32269803e-09 -1.00343182e-08 0
		  7.61725744e-10 -9.93759163e-09 0
		 -3.72425441e-10  3.42949417e-09 0
		 -1.41476723e-09  5.12819052e-09 0
		 -3.45206457e-09  2.57734763e-08 0
		 -1.39933108e-11  2.57765934e-08 0
		</DataArray>
		<DataArray type="Float32" Name="rhs_E" format="ascii">
		  3.08569909e-08  7.29658487e-08  2.83887917e-07  2.29353540e-07 -1.31504960e-08  9.00818860e-09 -3.53561159e-08 -6.57762465e-08
		  9.32150533e-11  1.13535972e-08  2.65558654e-08  3.62275183e-08 -8.30668568e-09 -1.32146170e-08 -6.54816616e-08 -6.54140175e-08
		</DataArray>
	</PointData>
</Piece>


<Piece NumberOfPoints="16" NumberOfCells="9">
	<Points>
		<DataArray type="Float32" NumberOfComponents="3" format="ascii">
		  1.25119377e+00 -2.73940690e-15 0
		  1.21481104e+00 -8.87090450e-02 0
		  1.17023409e+00 -1.71504009e-01 0
		  1.11746291e+00 -2.48384894e-01 0
		  1.55167128e+00 -3.72920840e-15 0
		  1.51410064e+00 -1.21085835e-01 0
		  1.46503599e+00 -2.35504890e-01 0
		  1.40447732e+00 -3.43257166e-01 0
		  1.85214878e+00 -4.71435902e-15 0
		  1.81339025e+00 -1.53462625e-01 0
		  1.75983790e+00 -2.99505771e-01 0
		  1.69149173e+00 -4.38129438e-01 0
		  2.15262628e+00 -5.69950964e-15 0
		  2.11267985e+00 -1.85839415e-01 0
		  2.05463981e+00 -3.63506651e-01 0
		  1.97850614e+00 -5.33001710e-01 0
		</DataArray>
	</Points>
	<Cells>
		<DataArray type="Int32" Name="connectivity" format="ascii">
		   0   1   5   4
		   1   2   6   5
		   2   3   7   6
		   4   5   9   8
		   5   6  10   9
		   6   7  11  10
		   8   9  13  12
		   9  10  14  13
		  10  11  15  14
		</DataArray>
		<DataArray type="Int32" Name="offsets" format="ascii">
		   4   8  12  16  20  24  28  32  36
		</DataArray>
		<DataArray type="UInt8" Name="types" format="ascii">
		   9   9   9   9   9   9   9   9   9
		</DataArray>
	</Cells>
	<PointData Scalars="Scalars" Vectors="Vectors">
		<DataArray type="Int32" Name="index" format="ascii">
		   1   1   1   1   1   1   1   1
		   1   1   1   1   1   1   1   1
		</DataArray>
		<DataArray type="Int32" Name="p_ref" format="ascii">
		   3   3   3   3   3   3   3   3
		   3   3   3   3   3   3   3   3
		</DataArray>
		<DataArray type="Int32" Name="ml" format="ascii">
		   0   0   0   0   0   0   0   0
		   0   0   0   0   0   0   0   0
		</DataArray>
		<DataArray type="Float32" Name="rho" format="ascii">
		  9.97677280e-01  1.00013308e+00  1.00000359e+00  1.00114648e+00  9.97923232e-01  1.00021163e+00  1.00010804e+00  1.00082272e+00
		  9.98364188e-01  1.00021700e+00  1.00026402e+00  1.00060122e+00  9.98545716e-01  1.00022241e+00  1.00028055e+00  1.00028631e+00
		</DataArray>
		<DataArray type="Float32" Name="velocity" NumberOfComponents="3" format="ascii">
		  5.94707697e-02 -1.36503918e-04 0
		  1.06868823e-01 -1.13260812e-03 0
		  1.14900891e-01 -9.24674462e-04 0
		  1.24994353e-01  1.12280905e-03 0
		  7.06899063e-02 -3.10123840e-04 0
		  1.09856841e-01 -1.00411158e-03 0
		  1.22965551e-01 -9.92973518e-04 0
		  1.30692375e-01 -1.19143546e-03 0
		  7.37834284e-02 -4.96843171e-04 0
		  1.14376200e-01 -9.29352203e-04 0
		  1.27094648e-01 -7.99742714e-04 0
		  1.26452956e-01 -1.09677156e-03 0
		  7.43523881e-02 -5.48354992e-04 0
		  1.18723217e-01 -7.86433308e-04 0
		  1.27902231e-01 -9.35320849e-04 0
		  1.21520213e-01 -4.90582471e-04 0
		</DataArray>
		<DataArray type="Float32" Name="p" format="ascii">
		  9.99063670e-01  1.00058296e+00  9.99751810e-01  1.00138629e+00  9.99391985e-01  1.00037384e+00  9.99863046e-01  1.00067349e+00
		  9.99827328e-01  1.00021177e+00  1.00003542e+00  1.00035963e+00  9.99871950e-01  1.00011404e+00  1.00004856e+00  1.00001130e+00
		</DataArray>
		<DataArray type="Float32" Name="s" format="ascii">
		  2.31882167e-03  3.96495541e-04 -2.53240405e-04 -2.18816849e-04  2.30229862e-03  7.75220972e-05 -2.88206734e-04 -4.78066150e-04
		  2.11932508e-03 -9.20217754e-05 -3.34156049e-04 -4.81884603e-04  1.90942067e-03 -1.97310760e-04 -3.44150753e-04 -3.89469782e-04
		</DataArray>
		<DataArray type="Float32" Name="mach" format="ascii">
		  5.02272202e-02  9.03054044e-02  9.71243485e-02  1.05631121e-01  5.97005323e-02  9.28423265e-02  1.03940978e-01  1.10468042e-01
		  6.23141471e-02  9.66689760e-02  1.07428986e-01  1.06889178e-01  6.27992561e-02  1.00347070e-01  1.08112543e-01  1.02718283e-01
		</DataArray>
		<DataArray type="Float32" Name="rhs_rho" format="ascii">
		  4.34741540e-10  2.48095475e-11  1.38649681e-09  2.25500746e-09  3.55074956e-10  7.29272245e-10  2.02557468e-09 -8.17356583e-10
		 -1.50473506e-10  8.14213597e-10  8.29738072e-10 -1.68205334e-09 -1.22558128e-10  1.74590588e-10 -1.05054665e-10 -7.30675831e-11
		</DataArray>
		<DataArray type="Float32" Name="rhs_velocity" NumberOfComponents="3" format="ascii">
		  1.04542885e-10 -1.43053896e-11 0
		 -3.29716904e-11  1.99715849e-11 0
		  4.18996968e-10 -4.15320258e-11 0
		  1.11972472e-09 -1.99154279e-10 0
		  1.55746952e-10  1.71262190e-11 0
		  1.29986424e-10 -8.28557219e-12 0
		  5.36931363e-10  2.15433628e-11 0
		 -5.01932845e-10 -2.61717658e-11 0
		  2.01387639e-11  6.53768865e-12 0
		  1.58299552e-10 -6.07809510e-13 0
		  2.67064779e-10  8.65914768e-12 0
		 -4.70829599e-10 -2.06090008e-11 0
		 -4.78841449e-11 -5.51752950e-12 0
		  4.86049188e-11 -7.46293825e-13 0
		 -7.45422936e-11 -8.32343340e-12 0
		 -1.15672361e-10  3.10122055e-11 0
		</DataArray>
		<DataArray type="Float32" Name="rhs_E" format="ascii">
		  1.53548181e-09  7.50498646e-11  4.88910750e-09  8.01414029e-09  1.26497352e-09  2.55186978e-09  7.13393925e-09 -2.92541353e-09
		 -5.21190260e-10  2.85632934e-09  2.92649994e-09 -5.92405293e-09 -4.31379424e-10  6.13349033e-10 -3.73982337e-10 -2.73374300e-10
		</DataArray>
	</PointData>
</Piece>


<Piece NumberOfPoints="16" NumberOfCells="9">
	<Points>
		<DataArray type="Float32" NumberOfComponents="3" format="ascii">
		  2.15262628e+00 -5.69372564e-15 0
		  2.11267985e+00 -1.85839415e-01 0
		  2.05463981e+00 -3.63506651e-01 0
		  1.97850614e+00 -5.33001710e-01 0
		  2.51319929e+00 -6.88230486e-15 0
		  2.47182738e+00 -2.24691562e-01 0
		  2.40840209e+00 -4.40307707e-01 0
		  2.32292343e+00 -6.46848435e-01 0
		  2.87377229e+00 -8.06445741e-15 0
		  2.83097490e+00 -2.63543710e-01 0
		  2.76216438e+00 -5.17108763e-01 0
		  2.66734072e+00 -7.60695161e-01 0
		  3.23434529e+00 -9.24660996e-15 0
		  3.19012243e+00 -3.02395857e-01 0
		  3.11592667e+00 -5.93909820e-01 0
		  3.01175801e+00 -8.74541887e-01 0
		</DataArray>
	</Points>
	<Cells>
		<DataArray type="Int32" Name="connectivity" format="ascii">
		   0   1   5   4
		   1   2   6   5
		   2   3   7   6
		   4   5   9   8
		   5   6  10   9
		   6   7  11  10
		   8   9  13  12
		   9  10  14  13
		  10  11  15  14
		</DataArray>
		<DataArray type="Int32" Name="offsets" format="ascii">
		   4   8  12  16  20  24  28  32  36
		</DataArray>
		<DataArray type="UInt8" Name="types" format="ascii">
		   9   9   9   9   9   9   9   9   9
		</DataArray>
	</Cells>
	<PointData Scalars="Scalars" Vectors="Vectors">
		<DataArray type="Int32" Name="index" format="ascii">
		   2   2   2   2   2   2   2   2
		   2   2   2   2   2   2   2   2
		</DataArray>
		<DataArray type="Int32" Name="p_ref" format="ascii">
		   3   3   3   3   3   3   3   3
		   3   3   3   3   3   3   3   3
		</DataArray>
		<DataArray type="Int32" Name="ml" format="ascii">
		   0   0   0   0   0   0   0   0
		   0   0   0   0   0   0   0   0
		</DataArray>
		<DataArray type="Float32" Name="rho" format="ascii">
		  9.98605361e-01  1.00023279e+00  1.00032295e+00  1.00034311e+00  9.98582280e-01  1.00034347e+00  1.00021263e+00  1.00050600e+00
		  9.98520756e-01  1.00046127e+00  1.00011951e+00  1.00075211e+00  9.98481308e-01  1.00053743e+00  1.00004080e+00  1.00099693e+00
		</DataArray>
		<DataArray type="Float32" Name="velocity" NumberOfComponents="3" format="ascii">
		  7.43204522e-02 -5.77031480e-04 0
		  1.18731941e-01 -7.09641123e-04 0
		  1.27904399e-01 -9.66819500e-04 0
		  1.21224015e-01 -7.34633177e-04 0
		  7.66224510e-02 -3.74045898e-04 0
		  1.21873198e-01 -6.46219167e-04 0
		  1.26589256e-01 -9.60577396e-04 0
		  1.19939107e-01  2.30667943e-04 0
		  8.04139356e-02 -1.55707605e-04 0
		  1.23290859e-01 -5.90221864e-04 0
		  1.25380040e-01 -9.42196084e-04 0
		  1.21637323e-01  4.07658367e-04 0
		  8.47863514e-02  4.27173095e-05 0
		  1.23725192e-01 -6.05281908e-04 0
		  1.24769132e-01 -8.33903385e-04 0
		  1.23928054e-01  3.02583153e-04 0
		</DataArray>
		<DataArray type="Float32" Name="p" format="ascii">
		  9.99951108e-01  1.00012942e+00  1.00010235e+00  1.00009834e+00  9.99748170e-01  1.00018460e+00  1.00000321e+00  1.00030743e+00
		  9.99531076e-01  1.00028787e+00  9.99920842e-01  1.00053535e+00  9.99353271e-01  1.00036434e+00  9.99830639e-01  1.00077351e+00
		</DataArray>
		<DataArray type="Float32" Name="s" format="ascii">
		  1.90496415e-03 -1.96458775e-04 -3.49715171e-04 -3.81932885e-04  1.73435442e-03 -2.96195345e-04 -2.94430715e-04 -4.00836168e-04
		  1.60344066e-03 -3.57799911e-04 -2.46466251e-04 -5.17355484e-04  1.48084630e-03 -3.87923954e-04 -2.26497117e-04 -6.21805922e-04
		</DataArray>
		<DataArray type="Float32" Name="mach" format="ascii">
		  6.27718573e-02  1.00353784e-01  1.08113957e-01  1.02467410e-01  6.47207909e-02  1.03011280e-01  1.07001731e-01  1.01377294e-01
		  6.79279506e-02  1.04210019e-01  1.05978992e-01  1.02814014e-01  7.16262864e-02  1.04577170e-01  1.05462600e-01  1.04750325e-01
		</DataArray>
		<DataArray type="Float32" Name="rhs_rho" format="ascii">
		 -1.75157014e-10  2.81356172e-10 -7.68975523e-11 -5.38688694e-10 -3.87926989e-10  3.85983871e-10 -4.92797620e-10  3.27977156e-10
		 -1.99331654e-10  1.63421181e-10 -3.59375347e-10  7.48857867e-10 -1.81662560e-11  3.81840979e-11 -2.14705412e-11  1.36274090e-10
		</DataArray>
		<DataArray type="Float32" Name="rhs_velocity" NumberOfComponents="3" format="ascii">
		 -3.65274070e-11 -3.47960455e-12 0
		  6.96342299e-11  2.88801766e-12 0
		 -9.03121341e-12 -4.14217141e-13 0
		 -2.09727642e-10  1.96955313e-11 0
		 -1.37428804e-10 -1.61098055e-11 0
		  1.08168745e-10  6.26504399e-12 0
		 -1.61317123e-10 -1.17260754e-11 0
		  1.78035689e-10  6.51911924e-11 0
		 -8.43533975e-11 -1.38040392e-11 0
		  5.54617034e-11  6.44006420e-12 0
		 -1.17465886e-10 -9.34801492e-12 0
		  2.48205286e-10  4.52976346e-11 0
		 -7.76238894e-12  3.05740196e-13 0
		  8.91896920e-12 -1.28393527e-12 0
		 -8.35275246e-12  1.52626987e-12 0
		  4.92412936e-11  1.22361165e-11 0
		</DataArray>
		<DataArray type="Float32" Name="rhs_E" format="ascii">
		 -6.15516319e-10  9.88970623e-10 -2.70082140e-10 -1.90147601e-09 -1.36648357e-09  1.35699068e-09 -1.73464931e-09  1.15803271e-09
		 -7.03782126e-10  5.75375260e-10 -1.26603160e-09  2.63464783e-09 -6.43841167e-11  1.34090409e-10 -7.59562467e-11  4.81210724e-10
		</DataArray>
	</PointData>
</Piece>


<Piece NumberOfPoints="16" NumberOfCells="9">
	<Points>
		<DataArray type="Float32" NumberOfComponents="3" format="ascii">
		  3.23434529e+00 -9.23890811e-15 0
		  3.19012243e+00 -3.02395857e-01 0
		  3.11592667e+00 -5.93909820e-01 0
		  3.01175801e+00 -8.74541887e-01 0
		  3.66703289e+00 -1.06660206e-14 0
		  3.62109946e+00 -3.49018434e-01 0
		  3.54044141e+00 -6.86071087e-01 0
		  3.42505876e+00 -1.01115796e+00 0
		  4.09972050e+00 -1.20845755e-14 0
		  4.05207649e+00 -3.95641011e-01 0
		  3.96495616e+00 -7.78232354e-01 0
		  3.83835950e+00 -1.14777403e+00 0
		  4.53240810e+00 -1.35031303e-14 0
		  4.48305352e+00 -4.42263588e-01 0
		  4.38947090e+00 -8.70393622e-01 0
		  4.25166025e+00 -1.28439010e+00 0
		</DataArray>
	</Points>
	<Cells>
		<DataArray type="Int32" Name="connectivity" format="ascii">
		   0   1   5   4
		   1   2   6   5
		   2   3   7   6
		   4   5   9   8
		   5   6  10   9
		   6   7  11  10
		   8   9  13  12
		   9  10  14  13
		  10  11  15  14
		</DataArray>
		<DataArray type="Int32" Name="offsets" format="ascii">
		   4   8  12  16  20  24  28  32  36
		</DataArray>
		<DataArray type="UInt8" Name="types" format="ascii">
		   9   9   9   9   9   9   9   9   9
		</DataArray>
	</Cells>
	<PointData Scalars="Scalars" Vectors="Vectors">
		<DataArray type="Int32" Name="index" format="ascii">
		   3   3   3   3   3   3   3   3
		   3   3   3   3   3   3   3   3
		</DataArray>
		<DataArray type="Int32" Name="p_ref" format="ascii">
		   3   3   3   3   3   3   3   3
		   3   3   3   3   3   3   3   3
		</DataArray>
		<DataArray type="Int32" Name="ml" format="ascii">
		   0   0   0   0   0   0   0   0
		   0   0   0   0   0   0   0   0
		</DataArray>
		<DataArray type="Float32" Name="rho" format="ascii">
		  9.98479778e-01  1.00054677e+00  1.00004317e+00  1.00099526e+00  9.98567668e-01  1.00057266e+00  1.00004453e+00  1.00104707e+00
		  9.98704746e-01  1.00057040e+00  1.00007034e+00  1.00100054e+00  9.98849335e-01  1.00055267e+00  1.00010856e+00  1.00090988e+00
		</DataArray>
		<DataArray type="Float32" Name="velocity" NumberOfComponents="3" format="ascii">
		  8.47687639e-02  5.03605172e-05 0
		  1.23724414e-01 -6.19758901e-04 0
		  1.24743982e-01 -8.44880889e-04 0
		  1.24004089e-01  4.05970242e-04 0
		  8.93729442e-02  1.42041041e-04 0
		  1.23855774e-01 -6.24871572e-04 0
		  1.24727271e-01 -6.69425215e-04 0
		  1.25415284e-01 -6.26683161e-05 0
		  9.28366068e-02  1.56700820e-04 0
		  1.24010131e-01 -6.23033167e-04 0
		  1.24850965e-01 -5.73333615e-04 0
		  1.25450384e-01 -2.64678796e-04 0
		  9.53948917e-02  1.25160196e-04 0
		  1.24216410e-01 -5.95648483e-04 0
		  1.24898889e-01 -5.36847052e-04 0
		  1.24920825e-01 -3.50357795e-04 0
		</DataArray>
		<DataArray type="Float32" Name="p" format="ascii">
		  9.99352776e-01  1.00037633e+00  9.99835871e-01  1.00076628e+00  9.99324621e-01  1.00040195e+00  9.99825998e-01  1.00081851e+00
		  9.99382890e-01  1.00039433e+00  9.99845145e-01  1.00078819e+00  9.99474608e-01  1.00036565e+00  9.99886678e-01  1.00070439e+00
		</DataArray>
		<DataArray type="Float32" Name="s" format="ascii">
		  1.48249609e-03 -3.89013488e-04 -2.24585127e-04 -6.26682145e-04  1.33109438e-03 -3.99628458e-04 -2.36352519e-04 -6.46947634e-04
		  1.19723067e-03 -4.04091089e-04 -2.53340641e-04 -6.12176084e-04  1.08632812e-03 -4.07940393e-04 -2.65302001e-04 -5.69109325e-04
		</DataArray>
		<DataArray type="Float32" Name="mach" format="ascii">
		  7.16113951e-02  1.04576435e-01  1.05441255e-01  1.04815134e-01  7.55054069e-02  1.04687498e-01  1.05426821e-01  1.06007377e-01
		  7.84347400e-02  1.04818236e-01  1.05531319e-01  1.06036410e-01  8.05982450e-02  1.04993047e-01  1.05571514e-01  1.05588621e-01
		</DataArray>
		<DataArray type="Float32" Name="rhs_rho" format="ascii">
		 -2.37356667e-11  2.27930688e-11 -6.12755948e-11  3.29662629e-10  3.04245727e-11  4.36428627e-11 -8.04690308e-13  2.62535577e-10
		  3.00799653e-11  4.49132241e-11  1.02856856e-11  1.60168381e-11 -2.68958493e-12  1.63125770e-11 -1.94762465e-11  1.21208028e-11
		</DataArray>
		<DataArray type="Float32" Name="rhs_velocity" NumberOfComponents="3" format="ascii">
		 -1.92010850e-11 -2.80882997e-12 0
		  9.68904825e-12  1.06598339e-12 0
		 -2.87069652e-11 -1.15215021e-12 0
		  1.21380643e-10  1.10472181e-11 0
		  1.73182954e-11  5.95628125e-12 0
		  5.17664843e-12 -1.34480645e-12 0
		  1.30171190e-11  8.16325731e-12 0
		  3.97847671e-11 -2.04273480e-11 0
		  2.58354787e-11  9.79742476e-12 0
		  1.31211510e-12 -3.39348317e-12 0
		  2.18992973e-11  9.63552106e-12 0
		 -3.43758106e-11 -3.10132168e-11 0
		  4.62602299e-12  2.21474769e-12 0
		  1.78170752e-12 -3.31597953e-13 0
		  1.48721195e-12  2.45632429e-12 0
		 -1.17183941e-11 -9.87830788e-12 0
		</DataArray>
		<DataArray type="Float32" Name="rhs_E" format="ascii">
		 -8.48735396e-11  8.03814457e-11 -2.17018056e-10  1.16239009e-09  1.06303370e-10  1.53123556e-10 -3.44416577e-12  9.23274737e-10
		  1.06184504e-10  1.57171046e-10  3.66662310e-11  5.52732121e-11 -9.26284878e-12  5.72012719e-11 -6.81491812e-11  4.14080822e-11
		</DataArray>
	</PointData>
</Piece>


<Piece NumberOfPoints="16" NumberOfCells="9">
	<Points>
		<DataArray type="Float32" NumberOfComponents="3" format="ascii">
		  4.53240810e+00 -1.34931271e-14 0
		  4.48305352e+00 -4.42263588e-01 0
		  4.38947090e+00 -8.70393622e-01 0
		  4.25166025e+00 -1.28439010e+00 0
		  5.05163323e+00 -1.52064795e-14 0
		  5.00022596e+00 -4.98210682e-01 0
		  4.89888860e+00 -9.80987144e-01 0
		  4.74762115e+00 -1.44832939e+00 0
		  5.57085836e+00 -1.69087172e-14 0
		  5.51739840e+00 -5.54157775e-01 0
		  5.40830630e+00 -1.09158067e+00 0
		  5.24358205e+00 -1.61226867e+00 0
		  6.09008348e+00 -1.86109549e-14 0
		  6.03457084e+00 -6.10104868e-01 0
		  5.91772399e+00 -1.20217419e+00 0
		  5.73954295e+00 -1.77620796e+00 0
		</DataArray>
	</Points>
	<Cells>
		<DataArray type="Int32" Name="connectivity" format="ascii">
		   0   1   5   4
		   1   2   6   5
		   2   3   7   6
		   4   5   9   8
		   5   6  10   9
		   6   7  11  10
		   8   9  13  12
		   9  10  14  13
		  10  11  15  14
		</DataArray>
		<DataArray type="Int32" Name="offsets" format="ascii">
		   4   8  12  16  20  24  28  32  36
		</DataArray>
		<DataArray type="UInt8" Name="types" format="ascii">
		   9   9   9   9   9   9   9   9   9
		</DataArray>
	</Cells>
	<PointData Scalars="Scalars" Vectors="Vectors">
		<DataArray type="Int32" Name="index" format="ascii">
		   4   4   4   4   4   4   4   4
		   4   4   4   4   4   4   4   4
		</DataArray>
		<DataArray type="Int32" Name="p_ref" format="ascii">
		   3   3   3   3   3   3   3   3
		   3   3   3   3   3   3   3   3
		</DataArray>
		<DataArray type="Int32" Name="ml" format="ascii">
		   0   0   0   0   0   0   0   0
		   0   0   0   0   0   0   0   0
		</DataArray>
		<DataArray type="Float32" Name="rho" format="ascii">
		  9.98849767e-01  1.00055508e+00  1.00010621e+00  1.00091526e+00  9.98979099e-01  1.00054545e+00  1.00013240e+00  1.00085125e+00
		  9.99081725e-01  1.00054254e+00  1.00015035e+00  1.00080816e+00  9.99161884e-01  1.00054280e+00  1.00016157e+00  1.00077734e+00
		</DataArray>
		<DataArray type="Float32" Name="velocity" NumberOfComponents="3" format="ascii">
		  9.54012751e-02  1.28379540e-04 0
		  1.24212722e-01 -5.97965280e-04 0
		  1.24904794e-01 -5.35062891e-04 0
		  1.24907923e-01 -3.60925483e-04 0
		  9.77680130e-02  1.06476439e-04 0
		  1.24433790e-01 -5.61722987e-04 0
		  1.24798855e-01 -5.38844092e-04 0
		  1.24257621e-01 -3.19809414e-04 0
		  9.97027020e-02  9.87678773e-05 0
		  1.24576330e-01 -5.37686978e-04 0
		  1.24600432e-01 -5.42030313e-04 0
		  1.23721991e-01 -3.11379949e-04 0
		  1.01332595e-01  9.99194598e-05 0
		  1.24650288e-01 -5.21492311e-04 0
		  1.24350016e-01 -5.45041697e-04 0
		  1.23235356e-01 -3.20093373e-04 0
		</DataArray>
		<DataArray type="Float32" Name="p" format="ascii">
		  9.99474792e-01  1.00036912e+00  9.99883171e-01  1.00071265e+00  9.99549869e-01  1.00035033e+00  9.99914673e-01  1.00065749e+00
		  9.99605343e-01  1.00034220e+00  9.99939144e-01  1.00062578e+00  9.99642483e-01  1.00033991e+00  9.99956986e-01  1.00060947e+00
		</DataArray>
		<DataArray type="Float32" Name="s" format="ascii">
		  1.08590655e-03 -4.07847930e-04 -2.65522321e-04 -5.68377490e-04  9.79759533e-04 -4.13153290e-04 -2.70673408e-04 -5.33967988e-04
		  8.91440374e-04 -4.17210930e-04 -2.71339167e-04 -5.05374698e-04  8.16273456e-04 -4.19862283e-04 -2.69200339e-04 -4.78567194e-04
		</DataArray>
		<DataArray type="Float32" Name="mach" format="ascii">
		  8.06036519e-02  1.04989884e-01  1.05576560e-01  1.05577589e-01  8.26055060e-02  1.05177075e-01  1.05486749e-01  1.05027372e-01
		  8.42421314e-02  1.05297738e-01  1.05318703e-01  1.04574026e-01  8.56211261e-02  1.05360326e-01  1.05106705e-01  1.04161973e-01
		</DataArray>
		<DataArray type="Float32" Name="rhs_rho" format="ascii">
		  3.72687261e-12  1.95783282e-11 -9.24625177e-12 -2.65852923e-11 -1.18631092e-11  4.34298863e-11 -7.49081227e-11 -2.87804381e-11
		 -1.90113757e-11  3.13694660e-11 -9.44524346e-11 -1.22970841e-11 -6.12278522e-12  7.54422233e-12 -3.34229333e-11 -5.05524784e-12
		</DataArray>
		<DataArray type="Float32" Name="rhs_velocity" NumberOfComponents="3" format="ascii">
		  9.45476148e-12  3.94359326e-12 0
		  6.36038412e-13 -1.42856257e-12 0
		  6.65513333e-12  3.41158905e-12 0
		 -2.51917552e-11 -1.25247204e-11 0
		  1.35423245e-11  7.85383254e-12 0
		  2.71409894e-12 -2.75346870e-12 0
		 -1.49444478e-12  6.81597400e-12 0
		 -3.99385188e-11 -2.52151856e-11 0
		  8.92863572e-12  6.39348754e-12 0
		  1.42122729e-12 -2.31337852e-12 0
		 -9.16688983e-12  5.46881139e-12 0
		 -2.90484968e-11 -2.04709602e-11 0
		  2.71658607e-12  2.05558521e-12 0
		 -7.60508599e-14 -7.36312191e-13 0
		 -3.90278093e-12  1.75044009e-12 0
		 -8.94356938e-12 -6.59279185e-12 0
		</DataArray>
		<DataArray type="Float32" Name="rhs_E" format="ascii">
		  1.35265726e-11  6.84958424e-11 -3.19838705e-11 -9.46643257e-11 -4.10595226e-11  1.52113289e-10 -2.62376396e-10 -1.03069961e-10
		 -6.63885317e-11  1.09896684e-10 -3.31218022e-10 -4.44219390e-11 -2.13876578e-11  2.64128603e-11 -1.17222650e-10 -1.80568235e-11
		</DataArray>
	</PointData>
</Piece>


<Piece NumberOfPoints="16" NumberOfCells="9">
	<Points>
		<DataArray type="Float32" NumberOfComponents="3" format="ascii">
		  6.09008348e+00 -1.85981899e-14 0
		  6.03457084e+00 -6.10104868e-01 0
		  5.91772399e+00 -1.20217419e+00 0
		  5.73954295e+00 -1.77620796e+00 0
		  6.71315364e+00 -2.06550302e-14 0
		  6.65517776e+00 -6.77241379e-01 0
		  6.52902523e+00 -1.33488641e+00 0
		  6.33469603e+00 -1.97293510e+00 0
		  7.33622379e+00 -2.26976872e-14 0
		  7.27578469e+00 -7.44377890e-01 0
		  7.14032646e+00 -1.46759864e+00 0
		  6.92984911e+00 -2.16966225e+00 0
		  7.95929394e+00 -2.47403442e-14 0
		  7.89639161e+00 -8.11514402e-01 0
		  7.75162770e+00 -1.60031086e+00 0
		  7.52500219e+00 -2.36638939e+00 0
		</DataArray>
	</Points>
	<Cells>
		<DataArray type="Int32" Name="connectivity" format="ascii">
		   0   1   5   4
		   1   2   6   5
		   2   3   7   6
		   4   5   9   8
		   5   6  10   9
		   6   7  11  10
		   8   9  13  12
		   9  10  14  13
		  10  11  15  14
		</DataArray>
		<DataArray type="Int32" Name="offsets" format="ascii">
		   4   8  12  16  20  24  28  32  36
		</DataArray>
		<DataArray type="UInt8" Name="types" format="ascii">
		   9   9   9   9   9   9   9   9   9
		</DataArray>
	</Cells>
	<PointData Scalars="Scalars" Vectors="Vectors">
		<DataArray type="Int32" Name="index" format="ascii">
		   5   5   5   5   5   5   5   5
		   5   5   5   5   5   5   5   5
		</DataArray>
		<DataArray type="Int32" Name="p_ref" format="ascii">
		   3   3   3   3   3   3   3   3
		   3   3   3   3   3   3   3   3
		</DataArray>
		<DataArray type="Int32" Name="ml" format="ascii">
		   0   0   0   0   0   0   0   0
		   0   0   0   0   0   0   0   0
		</DataArray>
		<DataArray type="Float32" Name="rho" format="ascii">
		  9.99164129e-01  1.00054305e+00  1.00016241e+00  1.00077667e+00  9.99247514e-01  1.00054468e+00  1.00017334e+00  1.00074459e+00
		  9.99321299e-01  1.00054754e+00  1.00018248e+00  1.00071663e+00  9.99385819e-01  1.00055049e+00  1.00018973e+00  1.00069204e+00
		</DataArray>
		<DataArray type="Float32" Name="velocity" NumberOfComponents="3" format="ascii">
		  1.01331623e-01  9.97184081e-05 0
		  1.24650353e-01 -5.22168473e-04 0
		  1.24349502e-01 -5.44996020e-04 0
		  1.23235662e-01 -3.21155528e-04 0
		  1.02977531e-01  1.02611031e-04 0
		  1.24668760e-01 -5.08582006e-04 0
		  1.24005489e-01 -5.48895279e-04 0
		  1.22657109e-01 -3.51580950e-04 0
		  1.04362915e-01  1.06237468e-04 0
		  1.24628777e-01 -5.00558059e-04 0
		  1.23627210e-01 -5.57194741e-04 0
		  1.22077871e-01 -3.87116506e-04 0
		  1.05543681e-01  1.09876756e-04 0
		  1.24542847e-01 -4.95907463e-04 0
		  1.23224658e-01 -5.69283465e-04 0
		  1.21503270e-01 -4.26407958e-04 0
		</DataArray>
		<DataArray type="Float32" Name="p" format="ascii">
		  9.99645516e-01  1.00034025e+00  9.99958133e-01  1.00060855e+00  9.99685154e-01  1.00034100e+00  9.99978590e-01  1.00059493e+00
		  9.99722136e-01  1.00034493e+00  9.99998659e-01  1.00058607e+00  9.99754779e-01  1.00035019e+00  1.00001773e+00  1.00058067e+00
		</DataArray>
		<DataArray type="Float32" Name="s" format="ascii">
		  8.16161650e-04 -4.19869058e-04 -2.69216893e-04 -4.78547367e-04  7.38982002e-04 -4.21400959e-04 -2.64066684e-04 -4.47282051e-04
		  6.72601024e-04 -4.21478121e-04 -2.56790134e-04 -4.17026319e-04  6.14866240e-04 -4.20352549e-04 -2.47867271e-04 -3.88019655e-04
		</DataArray>
		<DataArray type="Float32" Name="mach" format="ascii">
		  8.56202708e-02  1.05360379e-01  1.05106254e-01  1.04162247e-01  8.70128888e-02  1.05375936e-01  1.04814999e-01  1.03672356e-01
		  8.81851233e-02  1.05342058e-01  1.04494727e-01  1.03181882e-01  8.91842783e-02  1.05269289e-01  1.04153912e-01  1.02695352e-01
		</DataArray>
		<DataArray type="Float32" Name="rhs_rho" format="ascii">
		 -8.41536036e-12  9.18480733e-12 -4.15989767e-11 -3.50585254e-12 -2.65353312e-11  1.49571454e-11 -1.32816260e-10 -1.29761942e-11
		 -2.70467532e-11  6.97425729e-12 -1.37120098e-10 -1.39132056e-11 -9.11246240e-12  6.55054117e-13 -4.66683572e-11 -3.96609696e-12
		</DataArray>
		<DataArray type="Float32" Name="rhs_velocity" NumberOfComponents="3" format="ascii">
		  2.94372234e-12  2.38624961e-12 0
		  1.09803743e-14 -8.88660738e-13 0
		 -5.06452164e-12  2.02092093e-12 0
		 -1.01413593e-11 -7.67139371e-12 0
		  6.95713006e-12  6.42133995e-12 0
		 -2.10517267e-12 -2.43043794e-12 0
		 -1.87402682e-11  5.29521104e-12 0